 Gaussian 16, Revision B.01,
 Gaussian 16:  EM64L-G16RevB.01 20-Dec-2017

 --------------------------------------
 # hf/3-21g* pop=full geom=connectivity
 --------------------------------------

 ------------
 Optimisation
 ------------
 Symbolic Z-matrix:
 Charge = -1 Multiplicity = 1

                         Standard orientation:
 ---------------------------------------------------------------------
 Center     Atomic      Atomic             Coordinates (Angstroms)
 Number     Number       Type             X           Y           Z
 ---------------------------------------------------------------------
      1          6           0       -0.525523   -1.244559    0.000004
      2          6           0        0.783743   -1.572891    0.000055
      3          6           0        1.925408   -0.682056   -0.000091
      4          6           0       -1.167572    0.021761   -0.000400
      5          6           0        1.929529    0.658735    0.000061
      6          6           0       -0.510922    1.255530   -0.000110
      7          6           0        0.816774    1.567038    0.000104
      8          1           0       -1.235259   -2.101333    0.000207
      9          1           0        1.051630   -2.642636    0.000326
     10          1           0        2.898253   -1.207269   -0.000190
     11          1           0        2.915360    1.165444    0.000138
     12          1           0       -1.191715    2.136971   -0.000084
     13          1           0        1.094618    2.632274    0.000384
     14          6           0       -2.644254    0.003383    0.000080
     15          1           0       -3.050340   -0.543067   -0.892517
     16          1           0       -3.050396   -0.517869    0.907718
     17          1           0       -3.075245    1.035838   -0.014201
 ---------------------------------------------------------------------

 SCF Done:  E(RHF) =  -306.330110106     A.U. after   16 cycles

 The electronic state is 1-A.
 Alpha  occ. eigenvalues --  -10.99770 -10.99742 -10.99342 -10.99115 -10.96627
 Alpha  occ. eigenvalues --  -10.95973 -10.92280 -10.92036  -0.92611  -0.86087
 Alpha  occ. eigenvalues --   -0.83328  -0.76674  -0.67094  -0.65115  -0.51930
 Alpha  occ. eigenvalues --   -0.50757  -0.48609  -0.40580  -0.39607  -0.39029
 Alpha  occ. eigenvalues --   -0.37370  -0.33673  -0.32032  -0.28969  -0.28882
 Alpha  occ. eigenvalues --   -0.26589  -0.18722  -0.17748   0.02630
 Alpha virt. eigenvalues --    0.28502   0.40626   0.44224   0.45478   0.46340
 Alpha virt. eigenvalues --    0.48197   0.50942   0.51275   0.54466   0.55280
 Alpha virt. eigenvalues --    0.56482   0.56889   0.63357   0.68357   0.70442

 Mulliken charges:
               1
     1  C   -0.128338
     2  C   -0.306743
     3  C   -0.281959
     4  C   -0.270586
     5  C   -0.170269
     6  C   -0.087710
     7  C   -0.409302
     8  H    0.145964
     9  H    0.126316
    10  H    0.128386
    11  H    0.141215
    12  H    0.144340
    13  H    0.105480
    14  C   -0.519174
    15  H    0.122148
    16  H    0.121819
    17  H    0.138414
 Sum of Mulliken charges =  -1.00000

 Dipole moment (field-independent basis, Debye):
    X=             -0.6939    Y=             -0.3288    Z=             -0.0017  Tot=              0.7678
 Quadrupole moment (field-independent basis, Debye-Ang):
   XX=            -63.0145   YY=            -57.6804   ZZ=            -58.9523
   XY=             -0.6751   XZ=              0.0154   YZ=              0.0000

 Normal termination of Gaussian 16 at Thu Jun 12 22:48:00 2025.
