 Gaussian 16, Revision B.01,
 Gaussian 16:  EM64L-G16RevB.01 20-Dec-2017

 --------------------------------------
 # hf/3-21g* pop=full geom=connectivity
 --------------------------------------

 ------------
 Optimisation
 ------------
 Symbolic Z-matrix:
 Charge = -1 Multiplicity = 1

                         Standard orientation:
 ---------------------------------------------------------------------
 Center     Atomic      Atomic             Coordinates (Angstroms)
 Number     Number       Type             X           Y           Z
 ---------------------------------------------------------------------
      1          6           0       -0.502735    1.348101    0.113576
      2          6           0        0.862444    1.506791    0.127725
      3          6           0        1.875158    0.581527   -0.067812
      4          6           0       -1.229829    0.121499    0.047977
      5          6           0        1.710472   -0.792876   -0.326776
      6          6           0       -0.586470   -1.106354    0.624920
      7          6           0        0.613615   -1.555213   -0.102662
      8          1           0       -1.121473    2.258566    0.147568
      9          1           0        1.210706    2.553929    0.258943
     10          1           0        2.907670    0.961455   -0.088925
     11          1           0        2.592495   -1.295733   -0.772111
     12          1           0        0.593491   -2.596251   -0.453977
     13          6           0       -2.489143    0.047411   -0.438882
     14          1           0       -3.070128   -0.878733   -0.426533
     15          1           0       -2.988868    0.909941   -0.887863
     16          1           0       -0.308710   -0.873911    1.692644
     17          1           0       -1.336260   -1.944580    0.661862
 ---------------------------------------------------------------------

 SCF Done:  E(RHF) =  -306.360842575     A.U. after   15 cycles

 The electronic state is 1-A.
 Alpha  occ. eigenvalues --  -11.00156 -10.99659 -10.99455 -10.99161 -10.96496
 Alpha  occ. eigenvalues --  -10.95323 -10.94038 -10.93998  -0.93990  -0.86448
 Alpha  occ. eigenvalues --   -0.84291  -0.74795  -0.69506  -0.62612  -0.52453
 Alpha  occ. eigenvalues --   -0.49844  -0.48905  -0.43389  -0.41062  -0.39199
 Alpha  occ. eigenvalues --   -0.37285  -0.33949  -0.30785  -0.30308  -0.28406
 Alpha  occ. eigenvalues --   -0.26232  -0.19426  -0.13961  -0.01785
 Alpha virt. eigenvalues --    0.32445   0.39048   0.41200   0.45121   0.47134
 Alpha virt. eigenvalues --    0.48880   0.50120   0.52136   0.53108   0.54858
 Alpha virt. eigenvalues --    0.55556   0.56997   0.64597   0.66959   0.73112

 Mulliken charges:
               1
     1  C   -0.334347
     2  C   -0.159171
     3  C   -0.384205
     4  C    0.018116
     5  C   -0.170120
     6  C   -0.455237
     7  C   -0.278272
     8  H    0.132034
     9  H    0.141826
    10  H    0.116361
    11  H    0.140019
    12  H    0.136054
    13  C   -0.485917
    14  H    0.117770
    15  H    0.125912
    16  H    0.184098
    17  H    0.155079
 Sum of Mulliken charges =  -1.00000

 Dipole moment (field-independent basis, Debye):
    X=              0.3424    Y=             -0.7927    Z=              0.5584  Tot=              1.0283
 Quadrupole moment (field-independent basis, Debye-Ang):
   XX=            -66.4024   YY=            -56.8485   ZZ=            -58.4155
   XY=              0.9945   XZ=             -1.0997   YZ=              0.2485

 Normal termination of Gaussian 16 at Thu Jun 12 22:57:59 2025.
