 Gaussian 16, Revision B.01,
 Gaussian 16:  EM64L-G16RevB.01 20-Dec-2017

 -------------------------------------
 # hf/3-21g pop=full geom=connectivity
 -------------------------------------

 -------------------
 Title Card Required
 -------------------
 Symbolic Z-matrix:
 Charge =  0 Multiplicity = 1

                         Standard orientation:
 ---------------------------------------------------------------------
 Center     Atomic      Atomic             Coordinates (Angstroms)
 Number     Number       Type             X           Y           Z
 ---------------------------------------------------------------------
      1         13           0        0.000000    0.000000    0.593891
      2         17           0       -0.000000    2.107956   -0.151384
      3         17           0       -1.825543   -1.053978   -0.151384
      4         17           0        1.825543   -1.053978   -0.151384
 ---------------------------------------------------------------------

 SCF Done:  E(RHF) =  -1612.66242771     A.U. after   10 cycles

 The electronic state is 1-A1.
 Alpha  occ. eigenvalues -- -104.12733-104.12706-104.12706 -58.25519 -10.51857
 Alpha  occ. eigenvalues --  -10.51767 -10.51767  -7.98085  -7.98085  -7.98071
 Alpha  occ. eigenvalues --   -7.97785  -7.97782  -7.97782  -7.97763  -7.97747
 Alpha  occ. eigenvalues --   -7.97747  -5.05077  -3.35492  -3.35485  -3.35485
 Alpha  occ. eigenvalues --   -1.11479  -1.09485  -1.09485  -0.61496  -0.53044
 Alpha  occ. eigenvalues --   -0.53044  -0.50759  -0.48359  -0.48359  -0.47636
 Alpha  occ. eigenvalues --   -0.47636  -0.46986
 Alpha virt. eigenvalues --   -0.08405   0.10216   0.10216   0.11994   0.22974
 Alpha virt. eigenvalues --    0.30149   0.31562   0.31562   0.73432   0.73432
 Alpha virt. eigenvalues --    0.76091   0.76630   0.76630   0.83465   0.86461

 Mulliken charges:
               1
     1  Al   1.392566
     2  Cl  -0.464189
     3  Cl  -0.464189
     4  Cl  -0.464189
 Sum of Mulliken charges =  -0.00000

 Dipole moment (field-independent basis, Debye):
    X=              0.0000    Y=             -0.0000    Z=              4.9288  Tot=              4.9288
 Quadrupole moment (field-independent basis, Debye-Ang):
   XX=            -61.9618   YY=            -61.9618   ZZ=            -44.5835
   XY=              0.0000   XZ=             -0.0000   YZ=             -0.0000

 Normal termination of Gaussian 16 at Fri Jun 13 21:25:01 2025.
