 Gaussian 16, Revision B.01,
 Gaussian 16:  EM64L-G16RevB.01 20-Dec-2017

 -------------------------------------
 # hf/3-21g pop=full geom=connectivity
 -------------------------------------

 ---------
 35 DMP sp
 ---------
 Symbolic Z-matrix:
 Charge =  0 Multiplicity = 1

                         Standard orientation:
 ---------------------------------------------------------------------
 Center     Atomic      Atomic             Coordinates (Angstroms)
 Number     Number       Type             X           Y           Z
 ---------------------------------------------------------------------
      1          6           0        0.000008    1.145710    1.131144
      2          6           0       -0.000000    1.204009   -0.252957
      3          6           0       -0.000000    0.000000   -0.939344
      4          6           0       -0.000000   -1.204009   -0.252957
      5          6           0       -0.000008   -1.145710    1.131144
      6          7           0        0.000000   -0.000000    1.803007
      7          1           0       -0.000000    0.000000   -2.013782
      8          1           0        0.000006    2.045988    1.711992
      9          1           0       -0.000006   -2.045988    1.711992
     10          6           0        0.000089   -2.526379   -0.989162
     11          1           0        0.879040   -2.615816   -1.618631
     12          1           0       -0.000723   -3.355987   -0.293123
     13          1           0       -0.877938   -2.615216   -1.619986
     14          6           0       -0.000089    2.526379   -0.989162
     15          1           0        0.877938    2.615216   -1.619986
     16          1           0       -0.879040    2.615816   -1.618631
     17          1           0        0.000723    3.355987   -0.293123
 ---------------------------------------------------------------------

 SCF Done:  E(RHF) =  -322.955314136     A.U. after   12 cycles

 The electronic state is 1-A.
 Alpha  occ. eigenvalues --  -15.48594 -11.20575 -11.20528 -11.19329 -11.19322
 Alpha  occ. eigenvalues --  -11.18800 -11.17156 -11.17149  -1.26954  -1.10775
 Alpha  occ. eigenvalues --   -1.07286  -0.95802  -0.95165  -0.85243  -0.80942
 Alpha  occ. eigenvalues --   -0.71044  -0.68545  -0.59846  -0.59796  -0.57962
 Alpha  occ. eigenvalues --   -0.57953  -0.57171  -0.55464  -0.54353  -0.51814
 Alpha  occ. eigenvalues --   -0.49756  -0.39197  -0.36868  -0.33549
 Alpha virt. eigenvalues --    0.13083   0.15043   0.27047   0.29046   0.31192
 Alpha virt. eigenvalues --    0.31966   0.31984   0.32160   0.35155   0.36069
 Alpha virt. eigenvalues --    0.36295   0.41929   0.44646   0.45388   0.48069

 Mulliken charges:
               1
     1  C    0.141492
     2  C   -0.168282
     3  C   -0.145383
     4  C   -0.168282
     5  C    0.141492
     6  N   -0.681128
     7  H    0.241404
     8  H    0.247213
     9  H    0.247213
    10  C   -0.595094
    11  H    0.224223
    12  H    0.218801
    13  H    0.224200
    14  C   -0.595094
    15  H    0.224200
    16  H    0.224223
    17  H    0.218801
 Sum of Mulliken charges =  -0.00000

 Dipole moment (field-independent basis, Debye):
    X=             -0.0000    Y=             -0.0000    Z=             -2.7951  Tot=              2.7951
 Quadrupole moment (field-independent basis, Debye-Ang):
   XX=            -51.6988   YY=            -41.1050   ZZ=            -51.9946
   XY=             -0.0005   XZ=             -0.0000   YZ=             -0.0000

 Normal termination of Gaussian 16 at Mon Jun 16 17:01:02 2025.
