 Gaussian 16, Revision B.01,
 Gaussian 16:  EM64L-G16RevB.01 20-Dec-2017

 ----------------------------------------------
 # opt freq hf/3-21g pop=full geom=connectivity
 ----------------------------------------------

 ----------
 35 DMP opt
 ----------
 Symbolic Z-matrix:
 Charge =  0 Multiplicity = 1

 SCF Done:  E(RHF) =  -322.955314136     A.U. after   12 cycles
 Optimization completed.
    -- Stationary point found.
 Normal termination of Gaussian 16 at Mon Jun 16 17:00:00 2025.

 --------------------------------------------------------------
 #N Geom=AllCheck Guess=TCheck SCRF=Check GenChk RHF/3-21G Freq
 --------------------------------------------------------------

 Structure from the checkpoint file:  "35DMP_opt.chk"
 ----------
 35 DMP opt
 ----------
 Charge =  0 Multiplicity = 1

                         Standard orientation:
 ---------------------------------------------------------------------
 Center     Atomic      Atomic             Coordinates (Angstroms)
 Number     Number       Type             X           Y           Z
 ---------------------------------------------------------------------
      1          6           0        0.000008    1.145710    1.131144
      2          6           0        0.000000    1.204009   -0.252957
      3          6           0       -0.000000   -0.000000   -0.939344
      4          6           0       -0.000000   -1.204009   -0.252957
      5          6           0       -0.000008   -1.145710    1.131144
      6          7           0        0.000000    0.000000    1.803007
      7          1           0       -0.000000   -0.000000   -2.013782
      8          1           0        0.000006    2.045988    1.711992
      9          1           0       -0.000006   -2.045988    1.711992
     10          6           0        0.000089   -2.526379   -0.989162
     11          1           0        0.879040   -2.615816   -1.618631
     12          1           0       -0.000723   -3.355987   -0.293123
     13          1           0       -0.877938   -2.615216   -1.619986
     14          6           0       -0.000089    2.526379   -0.989162
     15          1           0        0.877938    2.615216   -1.619986
     16          1           0       -0.879040    2.615816   -1.618631
     17          1           0        0.000723    3.355987   -0.293123
 ---------------------------------------------------------------------

 SCF Done:  E(RHF) =  -322.955314136     A.U. after    1 cycles

 The electronic state is 1-A.
 Alpha  occ. eigenvalues --  -15.48594 -11.20575 -11.20528 -11.19329 -11.19322
 Alpha  occ. eigenvalues --  -11.18800 -11.17156 -11.17149  -1.26954  -1.10775
 Alpha  occ. eigenvalues --   -1.07286  -0.95802  -0.95165  -0.85243  -0.80942
 Alpha  occ. eigenvalues --   -0.71044  -0.68545  -0.59846  -0.59796  -0.57962
 Alpha  occ. eigenvalues --   -0.57953  -0.57171  -0.55464  -0.54353  -0.51814
 Alpha  occ. eigenvalues --   -0.49756  -0.39197  -0.36868  -0.33549
 Alpha virt. eigenvalues --    0.13083   0.15043   0.27047   0.29046   0.31192
 Alpha virt. eigenvalues --    0.31966   0.31984   0.32160   0.35155   0.36069
 Alpha virt. eigenvalues --    0.36295   0.41929   0.44646   0.45388   0.48069

 Mulliken charges:
               1
     1  C    0.141492
     2  C   -0.168282
     3  C   -0.145383
     4  C   -0.168282
     5  C    0.141492
     6  N   -0.681128
     7  H    0.241404
     8  H    0.247213
     9  H    0.247213
    10  C   -0.595094
    11  H    0.224223
    12  H    0.218801
    13  H    0.224200
    14  C   -0.595094
    15  H    0.224200
    16  H    0.224223
    17  H    0.218801
 Sum of Mulliken charges =  -0.00000

 Dipole moment (field-independent basis, Debye):
    X=              0.0000    Y=             -0.0000    Z=             -2.7951  Tot=              2.7951
 Quadrupole moment (field-independent basis, Debye-Ang):
   XX=            -51.6988   YY=            -41.1050   ZZ=            -51.9946
   XY=             -0.0005   XZ=             -0.0000   YZ=             -0.0000

  Exact polarizability:  33.694  -0.002  90.156  -0.000   0.000  73.585
 Approx polarizability:  30.887  -0.001  78.266  -0.000   0.000  75.465

                      1                      2                      3
                      A                      B                      B
 Frequencies --     54.2874                59.0867               216.2821
 Red. masses --      1.0216                 1.0498                 2.8868
 Frc consts  --      0.0018                 0.0022                 0.0796
 IR Inten    --      0.0000                 0.0382                 2.5009
 Raman Activ --      0.1358                 0.0928                 1.4988

                      4                      5                      6
                      A                      A                      B
 Frequencies --    261.5091               289.3749               431.5930
 Red. masses --      2.8114                 2.5856                 2.6464
 Frc consts  --      0.1133                 0.1276                 0.2904
 IR Inten    --      0.0000                 0.6594                 0.4671
 Raman Activ --      4.6260                 0.9438                 0.1634

                      7                      8                      9
                      B                      A                      A
 Frequencies --    521.8664               585.6551               592.2283
 Red. masses --      3.6919                 4.6531                 2.9086
 Frc consts  --      0.5924                 0.9403                 0.6011
 IR Inten    --      0.0109                 0.4948                 0.0000
 Raman Activ --      0.2170                11.8177                 0.6990

                     10                     11                     12
                      B                      A                      B
 Frequencies --    599.0510               778.4968               828.4930
 Red. masses --      4.9957                 8.0064                 1.9801
 Frc consts  --      1.0563                 2.8589                 0.8008
 IR Inten    --      1.2030                 9.2015                34.4253
 Raman Activ --      4.3478                13.9416                 0.6409

                     13                     14                     15
                      B                      B                      B
 Frequencies --   1004.3366              1032.5518              1105.0668
 Red. masses --      4.5716                 1.4701                 1.3501
 Frc consts  --      2.7169                 0.9235                 0.9714
 IR Inten    --      0.9827                 7.1673                 0.0089
 Raman Activ --      0.2670                 0.8492                 2.2447

                     16                     17                     18
                      B                      A                      A
 Frequencies --   1105.7665              1109.1745              1117.9121
 Red. masses --      2.2651                 1.6016                 1.3485
 Frc consts  --      1.6318                 1.1609                 0.9929
 IR Inten    --      3.5367                 0.1387                 0.0000
 Raman Activ --      0.3842                 1.8016                 3.9162

                     19                     20                     21
                      A                      A                      B
 Frequencies --   1161.4227              1210.5370              1224.0947
 Red. masses --      3.8376                 1.5620                 1.6874
 Frc consts  --      3.0499                 1.3486                 1.4897
 IR Inten    --     12.8181                 0.0000                14.7582
 Raman Activ --     21.0013                 0.0050                 0.0008

                     22                     23                     24
                      B                      A                      B
 Frequencies --   1239.7187              1266.5859              1289.9923
 Red. masses --      2.9190                 2.7790                 1.7288
 Frc consts  --      2.6432                 2.6267                 1.6950
 IR Inten    --      0.8795                11.9547                 2.2787
 Raman Activ --      3.9968                 4.6228                 6.1002

                     25                     26                     27
                      A                      B                      B
 Frequencies --   1384.0579              1497.5161              1572.3553
 Red. masses --      2.9632                 1.2274                 1.6088
 Frc consts  --      3.3445                 1.6217                 2.3434
 IR Inten    --      0.2675                 3.9505                25.1084
 Raman Activ --      8.5317                 0.1941                 4.8433

                     28                     29                     30
                      A                      A                      B
 Frequencies --   1580.6989              1588.2983              1589.7503
 Red. masses --      1.2156                 2.0704                 1.5981
 Frc consts  --      1.7895                 3.0773                 2.3796
 IR Inten    --      2.5308                 3.4635                 6.6117
 Raman Activ --     13.8055                 8.6816                12.3603

                     31                     32                     33
                      B                      A                      B
 Frequencies --   1663.9745              1664.2119              1665.0097
 Red. masses --      1.0431                 1.0423                 1.0670
 Frc consts  --      1.7017                 1.7009                 1.7427
 IR Inten    --     15.6179                 0.0000                18.1097
 Raman Activ --      0.0606                50.4904                 6.2359

                     34                     35                     36
                      A                      A                      B
 Frequencies --   1667.1809              1740.9814              1763.6273
 Red. masses --      1.1731                 3.8159                 4.4902
 Frc consts  --      1.9212                 6.8146                 8.2286
 IR Inten    --     13.8607                 4.1943                 0.6603
 Raman Activ --     20.2121                16.1519                14.6505

                     37                     38                     39
                      B                      A                      A
 Frequencies --   3197.1994              3197.7021              3246.6845
 Red. masses --      1.0349                 1.0349                 1.1007
 Frc consts  --      6.2326                 6.2349                 6.8360
 IR Inten    --     31.8272                13.5149                 0.0000
 Raman Activ --     12.2126               247.5957                41.1547

                     40                     41                     42
                      B                      B                      A
 Frequencies --   3246.8912              3267.7390              3267.9378
 Red. masses --      1.1007                 1.0997                 1.0996
 Frc consts  --      6.8369                 6.9188                 6.9190
 IR Inten    --     39.2551                14.0850                15.0498
 Raman Activ --    126.2109                60.8813                56.5473

                     43                     44                     45
                      A                      B                      A
 Frequencies --   3338.0551              3361.5602              3368.9540
 Red. masses --      1.0915                 1.0898                 1.0952
 Frc consts  --      7.1656                 7.2558                 7.3239
 IR Inten    --     12.1925                35.3778                13.1681
 Raman Activ --     53.1679                72.6108               136.6456

 - Thermochemistry -
 -------------------
 Temperature   298.150 Kelvin.  Pressure   1.00000 Atm.
 Atom     1 has atomic number  6 and mass  12.00000

 Molecular mass:   107.07350 amu.
 Principal axes and moments of inertia in atomic units:
                           1         2         3
     Eigenvalues --   483.491551004.559361465.83082
           X           -0.00003   0.00000   1.00000
           Y            1.00000   0.00000   0.00003
           Z           -0.00000   1.00000  -0.00000
 This molecule is an asymmetric top.
 Rotational symmetry number  2.
 Warning -- assumption of classical behavior for rotation
           may cause significant error
 Rotational temperatures (Kelvin)      0.17914     0.08622     0.05909
 Rotational constants (GHZ):           3.73273     1.79655     1.23121
 Zero-point vibrational energy     406464.0 (Joules/Mol)
                                   97.14722 (Kcal/Mol)
 Warning -- explicit consideration of  10 degrees of freedom as
           vibrations may cause significant error
 Vibrational temperatures:     78.11    85.01   311.18   376.25   416.35
          (Kelvin)            620.97   750.85   842.63   852.08   861.90
                             1120.08  1192.02  1445.02  1485.61  1589.94
                             1590.95  1595.85  1608.43  1671.03  1741.69
                             1761.20  1783.68  1822.33  1856.01  1991.35
                             2154.59  2262.27  2274.27  2285.21  2287.30
                             2394.09  2394.43  2395.58  2398.70  2504.88
                             2537.47  4600.06  4600.78  4671.25  4671.55
                             4701.55  4701.83  4802.72  4836.54  4847.17

 Zero-point correction=                           0.154814 (Hartree/Particle)
 Thermal correction to Energy=                    0.162159
 Thermal correction to Enthalpy=                  0.163103
 Thermal correction to Gibbs Free Energy=         0.122788
 Sum of electronic and zero-point Energies=           -322.800500
 Sum of electronic and thermal Energies=              -322.793155
 Sum of electronic and thermal Enthalpies=            -322.792211
 Sum of electronic and thermal Free Energies=         -322.832526

                     E (Thermal)             CV                S
                      KCal/Mol        Cal/Mol-Kelvin    Cal/Mol-Kelvin
 Total                  101.756             25.763             84.851
 Electronic               0.000              0.000              0.000
 Translational            0.889              2.981             39.922
 Rotational               0.889              2.981             26.679
 Vibrational             99.979             19.801             18.251
 Vibration     1          0.596              1.976              4.655
 Vibration     2          0.596              1.974              4.487
 Vibration     3          0.645              1.816              1.990
 Vibration     4          0.669              1.743              1.652
 Vibration     5          0.686              1.693              1.478
 Vibration     6          0.793              1.401              0.853
 Vibration     7          0.877              1.202              0.606
 Vibration     8          0.943              1.062              0.475
 Vibration     9          0.950              1.048              0.463
 Vibration    10          0.957              1.034              0.451

 Optimization completed.
    -- Stationary point found.
 Normal termination of Gaussian 16 at Mon Jun 16 17:00:06 2025.
