 Gaussian 16, Revision B.01,
 Gaussian 16:  EM64L-G16RevB.01 20-Dec-2017

 ----------------------------------------------
 # opt freq hf/3-21g pop=full geom=connectivity
 ----------------------------------------------

 --------------
 35 DMP ion opt
 --------------
 Symbolic Z-matrix:
 Charge =  1 Multiplicity = 1

 SCF Done:  E(RHF) =  -323.347436577     A.U. after   13 cycles
 Optimization completed.
    -- Stationary point found.
 Normal termination of Gaussian 16 at Mon Jun 16 17:03:19 2025.

 --------------------------------------------------------------
 #N Geom=AllCheck Guess=TCheck SCRF=Check GenChk RHF/3-21G Freq
 --------------------------------------------------------------

 Structure from the checkpoint file:  "35DMP_ion_opt.chk"
 --------------
 35 DMP ion opt
 --------------
 Charge =  1 Multiplicity = 1

                         Standard orientation:
 ---------------------------------------------------------------------
 Center     Atomic      Atomic             Coordinates (Angstroms)
 Number     Number       Type             X           Y           Z
 ---------------------------------------------------------------------
      1          6           0        0.000004    1.179155    1.083047
      2          6           0        0.000000    1.218723   -0.289726
      3          6           0        0.000000    0.000000   -0.961780
      4          6           0       -0.000000   -1.218723   -0.289726
      5          6           0       -0.000004   -1.179155    1.083047
      6          7           0       -0.000000   -0.000000    1.723314
      7          1           0        0.000000    0.000000   -2.034866
      8          1           0        0.000009    2.060176    1.687922
      9          1           0       -0.000009   -2.060176    1.687922
     10          6           0        0.000060   -2.533355   -1.040562
     11          1           0        0.879914   -2.607678   -1.668393
     12          1           0       -0.000658   -3.374164   -0.360102
     13          1           0       -0.879011   -2.607124   -1.669546
     14          6           0       -0.000060    2.533355   -1.040562
     15          1           0        0.879011    2.607124   -1.669546
     16          1           0       -0.879914    2.607678   -1.668393
     17          1           0        0.000658    3.374164   -0.360102
     18          1           0       -0.000000   -0.000000    2.729479
 ---------------------------------------------------------------------

 SCF Done:  E(RHF) =  -323.347436577     A.U. after    1 cycles

 The electronic state is 1-A.
 Alpha  occ. eigenvalues --  -15.78902 -11.43971 -11.43920 -11.39229 -11.38762
 Alpha  occ. eigenvalues --  -11.38753 -11.32001 -11.31994  -1.53444  -1.31772
 Alpha  occ. eigenvalues --   -1.27563  -1.15041  -1.12254  -1.09047  -1.01100
 Alpha  occ. eigenvalues --   -0.96345  -0.89906  -0.87587  -0.80037  -0.79742
 Alpha  occ. eigenvalues --   -0.77457  -0.72922  -0.72427  -0.72355  -0.70365
 Alpha  occ. eigenvalues --   -0.68719  -0.67626  -0.57749  -0.53561
 Alpha virt. eigenvalues --   -0.10287  -0.04076   0.05550   0.12776   0.13363
 Alpha virt. eigenvalues --    0.14039   0.15878   0.16303   0.18345   0.19392
 Alpha virt. eigenvalues --    0.19711   0.21555   0.25305   0.27751   0.28344

 Mulliken charges:
               1
     1  C    0.279698
     2  C   -0.196006
     3  C   -0.071209
     4  C   -0.196006
     5  C    0.279698
     6  N   -0.932899
     7  H    0.321144
     8  H    0.347509
     9  H    0.347509
    10  C   -0.596947
    11  H    0.269166
    12  H    0.249003
    13  H    0.269143
    14  C   -0.596947
    15  H    0.269143
    16  H    0.269166
    17  H    0.249003
    18  H    0.439831
 Sum of Mulliken charges =   1.00000

 Dipole moment (field-independent basis, Debye):
    X=              0.0000    Y=              0.0000    Z=              2.9387  Tot=              2.9387
 Quadrupole moment (field-independent basis, Debye-Ang):
   XX=            -50.0694   YY=            -29.6881   ZZ=            -27.2940
   XY=             -0.0007   XZ=             -0.0000   YZ=              0.0000

  Exact polarizability:  32.201  -0.002  88.185  -0.000   0.000  76.141
 Approx polarizability:  29.860  -0.001  75.576  -0.000   0.000  75.238

                      1                      2                      3
                      A                      B                      B
 Frequencies --     72.2555                76.7425               213.0594
 Red. masses --      1.0205                 1.0453                 2.8554
 Frc consts  --      0.0031                 0.0036                 0.0764
 IR Inten    --      0.0000                 1.1000                 4.4844
 Raman Activ --      0.1099                 0.0883                 1.6628

                      4                      5                      6
                      A                      A                      B
 Frequencies --    261.9242               287.6583               428.3984
 Red. masses --      2.8424                 2.6000                 2.5814
 Frc consts  --      0.1149                 0.1268                 0.2791
 IR Inten    --      0.0000                 0.0272                 1.9151
 Raman Activ --      3.6475                 1.0543                 0.0118

                      7                      8                      9
                      B                      A                      A
 Frequencies --    486.5467               580.0164               581.1278
 Red. masses --      2.6121                 4.7225                 2.9485
 Frc consts  --      0.3643                 0.9361                 0.5867
 IR Inten    --     22.9808                 0.1264                 0.0000
 Raman Activ --      0.0409                 8.7636                 0.4098

                     10                     11                     12
                      B                      B                      A
 Frequencies --    582.6120               787.9843               793.9712
 Red. masses --      5.1038                 1.9716                 6.3267
 Frc consts  --      1.0207                 0.7213                 2.3498
 IR Inten    --      2.8419                54.4566                 0.9917
 Raman Activ --      4.0200                 0.7365                13.2520

                     13                     14                     15
                      B                      B                      A
 Frequencies --    939.5827               987.5087              1095.7954
 Red. masses --      1.2578                 4.3032                 1.3514
 Frc consts  --      0.6542                 2.4724                 0.9561
 IR Inten    --    130.8083                 0.6204                 0.0000
 Raman Activ --      0.2964                 0.1807                 0.6826

                     16                     17                     18
                      B                      A                      B
 Frequencies --   1098.2862              1116.8055              1141.0292
 Red. masses --      1.3586                 1.5469                 1.6652
 Frc consts  --      0.9656                 1.1368                 1.2773
 IR Inten    --     10.6756                 2.0653                25.7879
 Raman Activ --      2.5812                 1.2026                 0.8009

                     19                     20                     21
                      A                      B                      A
 Frequencies --   1161.7723              1181.2771              1219.4807
 Red. masses --      5.5452                 1.4058                 1.5409
 Frc consts  --      4.4097                 1.1558                 1.3501
 IR Inten    --      0.0385                10.3196                 0.0000
 Raman Activ --     34.6228                 0.0047                 0.0173

                     22                     23                     24
                      A                      B                      B
 Frequencies --   1238.7817              1240.1787              1240.6300
 Red. masses --      1.8883                 3.0255                 1.7033
 Frc consts  --      1.7073                 2.7417                 1.5447
 IR Inten    --     20.9963                34.4012                 9.2584
 Raman Activ --      1.6976                 1.8467                 0.3340

                     25                     26                     27
                      B                      A                      B
 Frequencies --   1330.5222              1384.5516              1450.7757
 Red. masses --      2.2525                 4.4104                 1.1969
 Frc consts  --      2.3494                 4.9814                 1.4842
 IR Inten    --     32.0008                 1.5449                 1.8772
 Raman Activ --     12.7182                 7.0407                 0.0106

                     28                     29                     30
                      B                      A                      B
 Frequencies --   1499.2416              1559.5816              1592.7024
 Red. masses --      1.5003                 2.2314                 1.1797
 Frc consts  --      1.9869                 3.1977                 1.7632
 IR Inten    --      8.0563                10.9063                11.3516
 Raman Activ --      0.2495                 5.7471                16.3549

                     31                     32                     33
                      A                      B                      A
 Frequencies --   1593.5344              1654.8573              1655.2864
 Red. masses --      1.1658                 1.0399                 1.0389
 Frc consts  --      1.7442                 1.6779                 1.6771
 IR Inten    --      6.4971                33.5272                 0.0001
 Raman Activ --     11.3612                 0.0469                44.6060

                     34                     35                     36
                      B                      A                      B
 Frequencies --   1655.9238              1665.0455              1741.7371
 Red. masses --      1.0524                 1.1254                 2.2990
 Frc consts  --      1.7002                 1.8382                 4.1092
 IR Inten    --     18.1939                28.7963                55.5745
 Raman Activ --      2.2151                23.2931                 0.1176

                     37                     38                     39
                      A                      B                      B
 Frequencies --   1780.2314              1780.3215              3213.7425
 Red. masses --      3.8344                 2.3121                 1.0344
 Frc consts  --      7.1597                 4.3177                 6.2948
 IR Inten    --     23.3716                46.5092                 3.5830
 Raman Activ --     28.3333                17.2492                10.8715

                     40                     41                     42
                      A                      A                      B
 Frequencies --   3213.9240              3275.1962              3275.2550
 Red. masses --      1.0345                 1.1019                 1.1019
 Frc consts  --      6.2957                 6.9640                 6.9641
 IR Inten    --      0.2523                 0.0000                 2.9917
 Raman Activ --    244.3286                35.3343               116.9682

                     43                     44                     45
                      B                      A                      A
 Frequencies --   3290.8111              3290.9398              3366.9016
 Red. masses --      1.1015                 1.1015                 1.0933
 Frc consts  --      7.0283                 7.0285                 7.3023
 IR Inten    --      7.2534                 1.6885                 0.4876
 Raman Activ --     56.2248                56.8668                51.2527

                     46                     47                     48
                      B                      A                      A
 Frequencies --   3417.5402              3419.4476              3708.6553
 Red. masses --      1.0954                 1.0982                 1.0803
 Frc consts  --      7.5382                 7.5654                 8.7542
 IR Inten    --      6.8092                 1.9351               220.7305
 Raman Activ --     47.0204                84.7684                78.3020

 - Thermochemistry -
 -------------------
 Temperature   298.150 Kelvin.  Pressure   1.00000 Atm.
 Atom     1 has atomic number  6 and mass  12.00000

 Molecular mass:   108.08132 amu.
 Principal axes and moments of inertia in atomic units:
                           1         2         3
     Eigenvalues --   502.702791018.018141498.45157
           X           -0.00002   0.00000   1.00000
           Y            1.00000   0.00000   0.00002
           Z           -0.00000   1.00000   0.00000
 This molecule is an asymmetric top.
 Rotational symmetry number  2.
 Warning -- assumption of classical behavior for rotation
           may cause significant error
 Rotational temperatures (Kelvin)      0.17230     0.08508     0.05780
 Rotational constants (GHZ):           3.59008     1.77280     1.20440
 Zero-point vibrational energy     446387.4 (Joules/Mol)
                                  106.68916 (Kcal/Mol)
 Warning -- explicit consideration of  10 degrees of freedom as
           vibrations may cause significant error
 Vibrational temperatures:    103.96   110.42   306.54   376.85   413.88
          (Kelvin)            616.37   700.03   834.51   836.11   838.25
                             1133.73  1142.35  1351.85  1420.80  1576.61
                             1580.19  1606.83  1641.69  1671.53  1699.59
                             1754.56  1782.33  1784.34  1784.99  1914.32
                             1992.06  2087.34  2157.07  2243.89  2291.54
                             2292.74  2380.97  2381.59  2382.50  2395.63
                             2505.97  2561.36  2561.49  4623.86  4624.12
                             4712.28  4712.36  4734.74  4734.93  4844.22
                             4917.08  4919.82  5335.93

 Zero-point correction=                           0.170020 (Hartree/Particle)
 Thermal correction to Energy=                    0.177389
 Thermal correction to Enthalpy=                  0.178333
 Thermal correction to Gibbs Free Energy=         0.138339
 Sum of electronic and zero-point Energies=           -323.177417
 Sum of electronic and thermal Energies=              -323.170047
 Sum of electronic and thermal Enthalpies=            -323.169103
 Sum of electronic and thermal Free Energies=         -323.209098

                     E (Thermal)             CV                S
                      KCal/Mol        Cal/Mol-Kelvin    Cal/Mol-Kelvin
 Total                  111.313             26.323             84.176
 Electronic               0.000              0.000              0.000
 Translational            0.889              2.981             39.950
 Rotational               0.889              2.981             26.752
 Vibrational            109.536             20.361             17.474
 Vibration     1          0.598              1.967              4.091
 Vibration     2          0.599              1.965              3.973
 Vibration     3          0.644              1.821              2.017
 Vibration     4          0.669              1.743              1.649
 Vibration     5          0.685              1.697              1.488
 Vibration     6          0.790              1.408              0.864
 Vibration     7          0.843              1.280              0.693
 Vibration     8          0.937              1.075              0.485
 Vibration     9          0.938              1.072              0.483
 Vibration    10          0.939              1.069              0.481

 Optimization completed.
    -- Stationary point found.
 Normal termination of Gaussian 16 at Mon Jun 16 17:03:25 2025.
