 Gaussian 16, Revision B.01,
 Gaussian 16:  EM64L-G16RevB.01 20-Dec-2017

 -----------------------------------------
 # opt freq am1 pop=full geom=connectivity
 -----------------------------------------

 ------------
 Optimisation
 ------------
 Symbolic Z-matrix:
 Charge =  0 Multiplicity = 1

 SCF Done:  E(RAM1) =  0.172448773160     A.U. after   13 cycles
 SCF Done:  E(RAM1) =  0.161371018569     A.U. after   13 cycles
 SCF Done:  E(RAM1) =  0.161180974045     A.U. after   11 cycles
 SCF Done:  E(RAM1) =  0.161130420179     A.U. after   11 cycles
 SCF Done:  E(RAM1) =  0.161124277732     A.U. after   11 cycles
 SCF Done:  E(RAM1) =  0.161123350301     A.U. after   11 cycles
 SCF Done:  E(RAM1) =  0.161123130459     A.U. after    9 cycles
 Optimization completed.
    -- Stationary point found.
 Normal termination of Gaussian 16 at Thu Jun 12 22:20:40 2025.

 -------------------------------------------------------------
 #N Geom=AllCheck Guess=TCheck SCRF=Check GenChk RAM1/ZDO Freq
 -------------------------------------------------------------

 Structure from the checkpoint file:  "meth_cyclobutadiene_sp.chk"
 ------------
 Optimisation
 ------------
 Charge =  0 Multiplicity = 1

                         Standard orientation:
 ---------------------------------------------------------------------
 Center     Atomic      Atomic             Coordinates (Angstroms)
 Number     Number       Type             X           Y           Z
 ---------------------------------------------------------------------
      1          6           0       -0.682932   -1.000694    0.000045
      2          6           0       -1.615096   -0.019554   -0.000021
      3          6           0       -0.505869    1.045596    0.000025
      4          6           0        0.436042    0.068715   -0.000007
      5          1           0       -0.634317   -2.076364    0.000075
      6          1           0       -2.688273    0.074805   -0.000051
      7          1           0       -0.551026    2.121507    0.000026
      8          6           0        1.878297   -0.061670   -0.000032
      9          1           0        2.217492   -0.627465   -0.906050
     10          1           0        2.375916    0.940253   -0.000251
     11          1           0        2.217552   -0.627094    0.906196
 ---------------------------------------------------------------------

 SCF Done:  E(RAM1) =  0.161123130459     A.U. after    2 cycles

 The electronic state is 1-A.
 Alpha  occ. eigenvalues --   -1.43740  -1.14232  -0.94717  -0.82965  -0.65737
 Alpha  occ. eigenvalues --   -0.59612  -0.55252  -0.52883  -0.48634  -0.46238
 Alpha  occ. eigenvalues --   -0.43579  -0.41650  -0.30659
 Alpha virt. eigenvalues --    0.00496   0.07890   0.12023   0.13956   0.15452
 Alpha virt. eigenvalues --    0.16593   0.17235   0.17334   0.17522   0.18179
 Alpha virt. eigenvalues --    0.18581   0.19637   0.23591

 Mulliken charges:
               1
     1  C   -0.159135
     2  C   -0.150535
     3  C   -0.168849
     4  C   -0.102714
     5  H    0.158402
     6  H    0.158363
     7  H    0.158270
     8  C   -0.159489
     9  H    0.090214
    10  H    0.085257
    11  H    0.090215
 Sum of Mulliken charges =  -0.00000

 Dipole moment (field-independent basis, Debye):
    X=              0.3259    Y=             -0.1225    Z=             -0.0000  Tot=              0.3482
 N-N= 9.331558801010D+01 E-N=-1.282631696805D+02  KE=-4.044778211557D+01
 Orbital energies and kinetic energies (alpha):
                                 1                 2
   1         O                -1.437403         -2.463367
   2         O                -1.142317         -2.030428
   3         O                -0.947169         -1.878285
   4         O                -0.829645         -1.713754
   5         O                -0.657369         -1.388948
   6         O                -0.596124         -1.378890
   7         O                -0.552520         -1.428859

  Exact polarizability:  52.065 -12.172  47.232   0.000  -0.001  16.641
 Approx polarizability:  37.534 -14.902  37.131   0.000  -0.001  11.092

                      1                      2                      3
                      A                      A                      A
 Frequencies --     74.9754               261.6191               316.0183
 Red. masses --      1.0723                 2.6003                 2.5015
 Frc consts  --      0.0036                 0.1049                 0.1472
 IR Inten    --      0.0945                 5.3100                 0.8636

                      4                      5                      6
                      A                      A                      A
 Frequencies --    532.7485               713.2443               802.2172
 Red. masses --      1.8795                 4.3336                 1.1961
 Frc consts  --      0.3143                 1.2989                 0.4535
 IR Inten    --     16.9744                 0.0285               102.8549

                      7                      8                      9
                      A                      A                      A
 Frequencies --    867.1256               904.8091               923.9382
 Red. masses --      1.3240                 2.1048                 1.7633
 Frc consts  --      0.5865                 1.0153                 0.8869
 IR Inten    --      0.0412                 0.2244                 0.6348

                     10                     11                     12
                      A                      A                      A
 Frequencies --   1019.4095              1036.0413              1054.4009
 Red. masses --      1.2032                 1.1149                 1.5152
 Frc consts  --      0.7367                 0.7051                 0.9925
 IR Inten    --      4.4336                 0.0374                 3.4620

                     13                     14                     15
                      A                      A                      A
 Frequencies --   1112.8333              1154.6474              1197.1796
 Red. masses --      2.5067                 1.4218                 2.5378
 Frc consts  --      1.8290                 1.1168                 2.1430
 IR Inten    --      1.4752                 0.8198                13.2752

                     16                     17                     18
                      A                      A                      A
 Frequencies --   1328.7781              1374.5848              1375.5235
 Red. masses --      2.7657                 1.0803                 1.0701
 Frc consts  --      2.8772                 1.2026                 1.1930
 IR Inten    --      0.0465                 2.9080                 2.8929

                     19                     20                     21
                      A                      A                      A
 Frequencies --   1436.2886              1736.9355              1886.8170
 Red. masses --      1.6416                 6.8957                 9.2450
 Frc consts  --      1.9953                12.2573                19.3918
 IR Inten    --      0.6110                 1.0471                 1.7225

                     22                     23                     24
                      A                      A                      A
 Frequencies --   3032.8104              3048.7098              3138.8260
 Red. masses --      1.0885                 1.0898                 1.0285
 Frc consts  --      5.8989                 5.9678                 5.9700
 IR Inten    --      2.9852                 2.8402                 2.2493

                     25                     26                     27
                      A                      A                      A
 Frequencies --   3317.3127              3325.2046              3335.9743
 Red. masses --      1.0806                 1.0908                 1.1084
 Frc consts  --      7.0060                 7.1058                 7.2678
 IR Inten    --     69.7310                58.1753                17.5553

 - Thermochemistry -
 -------------------
 Temperature   298.150 Kelvin.  Pressure   1.00000 Atm.
 Atom     1 has atomic number  6 and mass  12.00000

 Molecular mass:    66.04695 amu.
 Principal axes and moments of inertia in atomic units:
                           1         2         3
     Eigenvalues --   133.78260 391.79874 513.76134
           X            0.99996  -0.00837   0.00001
           Y            0.00837   0.99996   0.00001
           Z           -0.00001  -0.00001   1.00000
 This molecule is an asymmetric top.
 Rotational symmetry number  1.
 Rotational temperatures (Kelvin)      0.64742     0.22107     0.16859
 Rotational constants (GHZ):          13.49010     4.60630     3.51280
 Zero-point vibrational energy     241101.2 (Joules/Mol)
                                   57.62457 (Kcal/Mol)
 Warning -- explicit consideration of   4 degrees of freedom as
           vibrations may cause significant error
 Vibrational temperatures:    107.87   376.41   454.68   766.51  1026.20
          (Kelvin)           1154.21  1247.60  1301.82  1329.34  1466.70
                             1490.63  1517.05  1601.12  1661.28  1722.47
                             1911.82  1977.72  1979.07  2066.50  2499.06
                             2714.71  4363.54  4386.41  4516.07  4772.87
                             4784.23  4799.72

 Zero-point correction=                           0.091831 (Hartree/Particle)
 Thermal correction to Energy=                    0.097060
 Thermal correction to Enthalpy=                  0.098004
 Thermal correction to Gibbs Free Energy=         0.063669
 Sum of electronic and zero-point Energies=              0.252954
 Sum of electronic and thermal Energies=                 0.258183
 Sum of electronic and thermal Enthalpies=               0.259127
 Sum of electronic and thermal Free Energies=            0.224792

                     E (Thermal)             CV                S
                      KCal/Mol        Cal/Mol-Kelvin    Cal/Mol-Kelvin
 Total                   60.906             17.689             72.263
 Electronic               0.000              0.000              0.000
 Translational            0.889              2.981             38.482
 Rotational               0.889              2.981             24.802
 Vibrational             59.128             11.727              8.980
 Vibration     1          0.599              1.966              4.018
 Vibration     2          0.669              1.743              1.651
 Vibration     3          0.703              1.643              1.331
 Vibration     4          0.888              1.178              0.581

 Optimization completed.
    -- Stationary point found.
 Normal termination of Gaussian 16 at Thu Jun 12 22:20:41 2025.
