 Gaussian 16, Revision B.01,
 Gaussian 16:  EM64L-G16RevB.01 20-Dec-2017

 -----------------------------------------
 # opt freq am1 pop=full geom=connectivity
 -----------------------------------------

 ------------
 Optimisation
 ------------
 Symbolic Z-matrix:
 Charge =  0 Multiplicity = 1

 SCF Done:  E(RAM1) =  0.119974049613     A.U. after   12 cycles
 SCF Done:  E(RAM1) =  0.115818763554     A.U. after   11 cycles
 SCF Done:  E(RAM1) =  0.115709233860     A.U. after    9 cycles
 SCF Done:  E(RAM1) =  0.115689442897     A.U. after    9 cycles
 SCF Done:  E(RAM1) =  0.115687411483     A.U. after    9 cycles
 SCF Done:  E(RAM1) =  0.115687206575     A.U. after    8 cycles
 Optimization completed.
    -- Stationary point found.
 Normal termination of Gaussian 16 at Thu Jun 12 22:28:03 2025.

 -------------------------------------------------------------
 #N Geom=AllCheck Guess=TCheck SCRF=Check GenChk RAM1/ZDO Freq
 -------------------------------------------------------------

 Structure from the checkpoint file:  "meth_cyclobutadiene_isomer_opt.chk"
 ------------
 Optimisation
 ------------
 Charge =  0 Multiplicity = 1

                         Standard orientation:
 ---------------------------------------------------------------------
 Center     Atomic      Atomic             Coordinates (Angstroms)
 Number     Number       Type             X           Y           Z
 ---------------------------------------------------------------------
      1          6           0        0.518386   -1.055798   -0.000268
      2          6           0        1.508678   -0.123572    0.000299
      3          6           0        0.531732    1.053024   -0.000154
      4          6           0       -0.556611   -0.027473    0.000010
      5          1           0        0.460680   -2.134741   -0.000444
      6          1           0        2.587851   -0.127950    0.000580
      7          1           0        0.559640    1.685318   -0.912032
      8          6           0       -1.876033   -0.023702    0.000135
      9          1           0       -2.458917    0.906507    0.000218
     10          1           0       -2.465579   -0.949761    0.000115
     11          1           0        0.559415    1.685748    0.911429
 ---------------------------------------------------------------------

 SCF Done:  E(RAM1) =  0.115687206575     A.U. after    2 cycles

 The electronic state is 1-A.
 Alpha  occ. eigenvalues --   -1.43606  -1.13801  -0.96761  -0.81885  -0.66836
 Alpha  occ. eigenvalues --   -0.59776  -0.56459  -0.54858  -0.48258  -0.45109
 Alpha  occ. eigenvalues --   -0.42125  -0.40152  -0.34151
 Alpha virt. eigenvalues --    0.01981   0.07289   0.12837   0.13307   0.14695
 Alpha virt. eigenvalues --    0.16885   0.17315   0.17451   0.17667   0.18104
 Alpha virt. eigenvalues --    0.19907   0.20619   0.22946

 Mulliken charges:
               1
     1  C   -0.144932
     2  C   -0.169036
     3  C   -0.123609
     4  C   -0.107356
     5  H    0.153132
     6  H    0.153916
     7  H    0.101531
     8  C   -0.202585
     9  H    0.118516
    10  H    0.118927
    11  H    0.101495
 Sum of Mulliken charges =   0.00000

 Dipole moment (field-independent basis, Debye):
    X=              0.2124    Y=              0.1509    Z=             -0.0002  Tot=              0.2605
 N-N= 9.387534160501D+01 E-N=-1.293431599782D+02  KE=-4.050065243530D+01
 Orbital energies and kinetic energies (alpha):
                                 1                 2
   1         O                -1.436059         -2.447447
   2         O                -1.138012         -2.093233
   3         O                -0.967606         -1.850418
   4         O                -0.818847         -1.697765
   5         O                -0.668355         -1.406727
   6         O                -0.597763         -1.340831
   7         O                -0.564587         -1.414328

  Exact polarizability:  71.596   7.580  43.337   0.008   0.007  15.080
 Approx polarizability:  51.351   6.701  29.799   0.007   0.006  10.272

                      1                      2                      3
                      A                      A                      A
 Frequencies --    228.6301               340.1081               520.2170
 Red. masses --      2.6167                 2.2400                 1.7886
 Frc consts  --      0.0806                 0.1527                 0.2852
 IR Inten    --      1.5091                 0.2991                13.2555

                      4                      5                      6
                      A                      A                      A
 Frequencies --    609.9176               749.4184               824.0974
 Red. masses --      1.0428                 4.9931                 1.1343
 Frc consts  --      0.2286                 1.6522                 0.4539
 IR Inten    --      1.7389                 0.2090                43.4495

                      7                      8                      9
                      A                      A                      A
 Frequencies --    914.4647               935.1211               982.1303
 Red. masses --      1.3881                 1.7860                 1.6614
 Frc consts  --      0.6839                 0.9202                 0.9442
 IR Inten    --     17.2568                 0.3261                 1.9744

                     10                     11                     12
                      A                      A                      A
 Frequencies --   1011.4880              1032.9163              1047.1306
 Red. masses --      1.3232                 1.4669                 1.4811
 Frc consts  --      0.7976                 0.9221                 0.9568
 IR Inten    --      8.4397                17.1801                35.0335

                     13                     14                     15
                      A                      A                      A
 Frequencies --   1049.4809              1178.8249              1186.5502
 Red. masses --      1.0579                 2.1897                 3.0611
 Frc consts  --      0.6865                 1.7928                 2.5392
 IR Inten    --      1.0296                 0.5747                 0.6964

                     16                     17                     18
                      A                      A                      A
 Frequencies --   1235.9024              1313.3877              1402.2686
 Red. masses --      1.3750                 3.4309                 1.1395
 Frc consts  --      1.2374                 3.4869                 1.3202
 IR Inten    --      0.4142                 6.8856                 0.4501

                     19                     20                     21
                      A                      A                      A
 Frequencies --   1415.2327              1712.1730              1976.4474
 Red. masses --      1.2433                 7.0786                 9.6647
 Frc consts  --      1.4672                12.2262                22.2437
 IR Inten    --      1.0268                 2.3624                 0.3344

                     22                     23                     24
                      A                      A                      A
 Frequencies --   3100.5871              3159.0178              3175.7361
 Red. masses --      1.0957                 1.0485                 1.1039
 Frc consts  --      6.2060                 6.1650                 6.5592
 IR Inten    --      3.6591                 5.6287                10.6674

                     25                     26                     27
                      A                      A                      A
 Frequencies --   3215.1653              3304.9465              3319.0811
 Red. masses --      1.0535                 1.0823                 1.1028
 Frc consts  --      6.4167                 6.9648                 7.1576
 IR Inten    --     42.1760                68.0938                35.0317

 - Thermochemistry -
 -------------------
 Temperature   298.150 Kelvin.  Pressure   1.00000 Atm.
 Atom     1 has atomic number  6 and mass  12.00000

 Molecular mass:    66.04695 amu.
 Principal axes and moments of inertia in atomic units:
                           1         2         3
     Eigenvalues --   145.00748 362.00408 495.04480
           X            0.99994   0.01098   0.00000
           Y           -0.01098   0.99994  -0.00003
           Z           -0.00000   0.00003   1.00000
 This molecule is an asymmetric top.
 Rotational symmetry number  1.
 Rotational temperatures (Kelvin)      0.59731     0.23926     0.17496
 Rotational constants (GHZ):          12.44585     4.98542     3.64561
 Zero-point vibrational energy     244878.2 (Joules/Mol)
                                   58.52730 (Kcal/Mol)
 Warning -- explicit consideration of   4 degrees of freedom as
           vibrations may cause significant error
 Vibrational temperatures:    328.95   489.34   748.48   877.54  1078.25
          (Kelvin)           1185.69  1315.71  1345.43  1413.07  1455.31
                             1486.14  1506.59  1509.97  1696.07  1707.18
                             1778.19  1889.67  2017.55  2036.20  2463.44
                             2843.67  4461.05  4545.12  4569.18  4625.91
                             4755.08  4775.42

 Zero-point correction=                           0.093269 (Hartree/Particle)
 Thermal correction to Energy=                    0.097866
 Thermal correction to Enthalpy=                  0.098810
 Thermal correction to Gibbs Free Energy=         0.066167
 Sum of electronic and zero-point Energies=              0.208956
 Sum of electronic and thermal Energies=                 0.213553
 Sum of electronic and thermal Enthalpies=               0.214498
 Sum of electronic and thermal Free Energies=            0.181854

                     E (Thermal)             CV                S
                      KCal/Mol        Cal/Mol-Kelvin    Cal/Mol-Kelvin
 Total                   61.412             16.624             68.703
 Electronic               0.000              0.000              0.000
 Translational            0.889              2.981             38.482
 Rotational               0.889              2.981             24.767
 Vibrational             59.634             10.663              5.455
 Vibration     1          0.651              1.797              1.890
 Vibration     2          0.720              1.595              1.212
 Vibration     3          0.875              1.205              0.609
 Vibration     4          0.969              1.011              0.433

                           ! Non-Optimized Parameters !
 Normal termination of Gaussian 16 at Thu Jun 12 22:28:03 2025.
