 Gaussian 16, Revision B.01,
 Gaussian 16:  EM64L-G16RevB.01 20-Dec-2017

 -------------------------------------
 # hf/3-21g pop=full geom=connectivity
 -------------------------------------

 -------
 TMA+ sp
 -------
 Symbolic Z-matrix:
 Charge =  1 Multiplicity = 1

                         Standard orientation:
 ---------------------------------------------------------------------
 Center     Atomic      Atomic             Coordinates (Angstroms)
 Number     Number       Type             X           Y           Z
 ---------------------------------------------------------------------
      1          7           0        0.000000   -0.000000    0.358390
      2          6           0        0.000000    1.447994   -0.107809
      3          1           0       -0.886275    1.933525    0.269590
      4          1           0        0.886275    1.933525    0.269590
      5          1           0        0.000000    1.450042   -1.186392
      6          6           0       -1.254000   -0.723997   -0.107809
      7          1           0       -1.231344   -1.734299    0.269590
      8          1           0       -2.117619   -0.199226    0.269590
      9          1           0       -1.255773   -0.725021   -1.186392
     10          6           0        1.254000   -0.723997   -0.107809
     11          1           0        2.117619   -0.199226    0.269590
     12          1           0        1.231344   -1.734299    0.269590
     13          1           0        1.255773   -0.725021   -1.186392
     14          1           0        0.000000   -0.000000    1.373463
 ---------------------------------------------------------------------

 SCF Done:  E(RHF) =  -172.705533781     A.U. after   10 cycles

 The electronic state is 1-A1.
 Alpha  occ. eigenvalues --  -15.81340 -11.41047 -11.41047 -11.40983  -1.51149
 Alpha  occ. eigenvalues --   -1.18451  -1.18451  -1.09586  -0.93733  -0.86341
 Alpha  occ. eigenvalues --   -0.86341  -0.77720  -0.77720  -0.74812  -0.74428
 Alpha  occ. eigenvalues --   -0.73442  -0.73442
 Alpha virt. eigenvalues --    0.02269   0.09502   0.11115   0.12137   0.12137
 Alpha virt. eigenvalues --    0.14701   0.14701   0.14704   0.17898   0.17898
 Alpha virt. eigenvalues --    0.19393   0.19393   0.21772   0.65429   0.65532

 Mulliken charges:
               1
     1  N   -0.778503
     2  C   -0.417607
     3  H    0.289218
     4  H    0.289218
     5  H    0.287694
     6  C   -0.417607
     7  H    0.289218
     8  H    0.289218
     9  H    0.287694
    10  C   -0.417607
    11  H    0.289218
    12  H    0.289218
    13  H    0.287694
    14  H    0.432933
 Sum of Mulliken charges =   1.00000

 Dipole moment (field-independent basis, Debye):
    X=             -0.0000    Y=              0.0000    Z=              0.8096  Tot=              0.8096
 Quadrupole moment (field-independent basis, Debye-Ang):
   XX=            -19.7740   YY=            -19.7740   ZZ=            -22.3872
   XY=             -0.0000   XZ=             -0.0000   YZ=              0.0000

 Normal termination of Gaussian 16 at Mon Jun 16 16:09:45 2025.
