 Gaussian 16, Revision B.01,
 Gaussian 16:  EM64L-G16RevB.01 20-Dec-2017

 ----------------------------------------------
 # opt freq hf/3-21g pop=full geom=connectivity
 ----------------------------------------------

 -------
 TMA opt
 -------
 Symbolic Z-matrix:
 Charge =  0 Multiplicity = 1

 SCF Done:  E(RHF) =  -172.305956353     A.U. after   10 cycles
 SCF Done:  E(RHF) =  -172.309784783     A.U. after   10 cycles
 SCF Done:  E(RHF) =  -172.310182906     A.U. after    9 cycles
 SCF Done:  E(RHF) =  -172.310267266     A.U. after    9 cycles
 SCF Done:  E(RHF) =  -172.310269526     A.U. after    8 cycles
 Optimization completed.
    -- Stationary point found.
 Normal termination of Gaussian 16 at Mon Jun 16 16:06:02 2025.

 --------------------------------------------------------------
 #N Geom=AllCheck Guess=TCheck SCRF=Check GenChk RHF/3-21G Freq
 --------------------------------------------------------------

 Structure from the checkpoint file:  "TMA_opt.chk"
 -------
 TMA opt
 -------
 Charge =  0 Multiplicity = 1

                         Standard orientation:
 ---------------------------------------------------------------------
 Center     Atomic      Atomic             Coordinates (Angstroms)
 Number     Number       Type             X           Y           Z
 ---------------------------------------------------------------------
      1          7           0        0.000000   -0.000000    0.337528
      2          6           0        0.000000    1.409666   -0.057136
      3          1           0       -0.877730    1.897468    0.348370
      4          1           0        0.877730    1.897468    0.348370
      5          1           0       -0.000000    1.545874   -1.141490
      6          6           0       -1.220806   -0.704833   -0.057136
      7          1           0       -1.204391   -1.708871    0.348370
      8          1           0       -2.082121   -0.188598    0.348370
      9          1           0       -1.338766   -0.772937   -1.141490
     10          6           0        1.220806   -0.704833   -0.057136
     11          1           0        2.082121   -0.188598    0.348370
     12          1           0        1.204391   -1.708871    0.348370
     13          1           0        1.338766   -0.772937   -1.141490
 ---------------------------------------------------------------------

 SCF Done:  E(RHF) =  -172.310269526     A.U. after    1 cycles

 The electronic state is 1-A1.
 Alpha  occ. eigenvalues --  -15.46342 -11.17879 -11.17879 -11.17814  -1.21309
 Alpha  occ. eigenvalues --   -0.94994  -0.94994  -0.80540  -0.63543  -0.62517
 Alpha  occ. eigenvalues --   -0.62517  -0.54262  -0.54262  -0.51827  -0.49402
 Alpha  occ. eigenvalues --   -0.49402  -0.33368
 Alpha virt. eigenvalues --    0.25423   0.32229   0.32229   0.34198   0.34198
 Alpha virt. eigenvalues --    0.34761   0.37225   0.37650   0.37650   0.41628
 Alpha virt. eigenvalues --    0.48036   0.48036   0.88557   0.88557   0.91168

 Mulliken charges:
               1
     1  N   -0.681470
     2  C   -0.347483
     3  H    0.204559
     4  H    0.204559
     5  H    0.165522
     6  C   -0.347483
     7  H    0.204559
     8  H    0.204559
     9  H    0.165522
    10  C   -0.347483
    11  H    0.204559
    12  H    0.204559
    13  H    0.165522
 Sum of Mulliken charges =  -0.00000

 Dipole moment (field-independent basis, Debye):
    X=             -0.0000    Y=             -0.0000    Z=             -0.8880  Tot=              0.8880
 Quadrupole moment (field-independent basis, Debye-Ang):
   XX=            -25.8435   YY=            -25.8435   ZZ=            -29.8962
   XY=              0.0000   XZ=             -0.0000   YZ=              0.0000

  Exact polarizability:  38.250  -0.000  38.250  -0.000   0.000  31.980
 Approx polarizability:  30.187  -0.000  30.187  -0.000   0.000  28.402

                      1                      2                      3
                      E                      E                     A2
 Frequencies --    269.0953               269.0953               277.5953
 Red. masses --      1.0917                 1.0917                 1.0132
 Frc consts  --      0.0466                 0.0466                 0.0460
 IR Inten    --      0.8943                 0.8943                 0.0000
 Raman Activ --      0.3729                 0.3729                 0.0000

                      4                      5                      6
                     A1                      E                      E
 Frequencies --    339.6569               448.2325               448.2325
 Red. masses --      2.4421                 2.0635                 2.0635
 Frc consts  --      0.1660                 0.2443                 0.2443
 IR Inten    --     19.9631                 0.2803                 0.2803
 Raman Activ --      0.1567                 0.0703                 0.0703

                      7                      8                      9
                     A1                      E                      E
 Frequencies --    838.3036              1124.6581              1124.6581
 Red. masses --      4.2465                 2.3503                 2.3503
 Frc consts  --      1.7582                 1.7515                 1.7515
 IR Inten    --     16.6802                31.0335                31.0335
 Raman Activ --     17.4628                12.5822                12.5822

                     10                     11                     12
                     A2                      E                      E
 Frequencies --   1170.9349              1233.8323              1233.8323
 Red. masses --      1.1999                 1.2514                 1.2514
 Frc consts  --      0.9693                 1.1224                 1.1224
 IR Inten    --      0.0000                11.2071                11.2071
 Raman Activ --      0.0000                 6.0353                 6.0353

                     13                     14                     15
                     A1                      E                      E
 Frequencies --   1323.6433              1415.9432              1415.9432
 Red. masses --      1.5119                 2.3271                 2.3271
 Frc consts  --      1.5607                 2.7489                 2.7489
 IR Inten    --     11.3660                 7.4207                 7.4207
 Raman Activ --      1.9269                 0.2610                 0.2610

                     16                     17                     18
                      E                      E                     A1
 Frequencies --   1601.9236              1601.9236              1641.7312
 Red. masses --      1.1511                 1.1511                 1.1786
 Frc consts  --      1.7404                 1.7404                 1.8716
 IR Inten    --      0.2213                 0.2213                 0.1456
 Raman Activ --     11.0856                11.0856                 1.7048

                     19                     20                     21
                      E                      E                     A2
 Frequencies --   1664.9096              1664.9096              1675.8449
 Red. masses --      1.0465                 1.0465                 1.0515
 Frc consts  --      1.7091                 1.7091                 1.7400
 IR Inten    --     10.7035                10.7035                 0.0000
 Raman Activ --     35.9982                35.9982                 0.0000

                     22                     23                     24
                     A1                      E                      E
 Frequencies --   1685.4238              1693.6418              1693.6418
 Red. masses --      1.0565                 1.0516                 1.0516
 Frc consts  --      1.7683                 1.7773                 1.7773
 IR Inten    --     23.4664                 5.2049                 5.2049
 Raman Activ --      4.9952                26.8638                26.8638

                     25                     26                     27
                      E                      E                     A1
 Frequencies --   3107.7095              3107.7095              3118.8510
 Red. masses --      1.0591                 1.0591                 1.0606
 Frc consts  --      6.0263                 6.0263                 6.0786
 IR Inten    --     31.1171                31.1171               162.1044
 Raman Activ --     12.6799                12.6799               202.6276

                     28                     29                     30
                      E                      E                     A1
 Frequencies --   3222.4347              3222.4347              3231.0480
 Red. masses --      1.0700                 1.0700                 1.0695
 Frc consts  --      6.5466                 6.5466                 6.5786
 IR Inten    --     30.0233                30.0233                61.6701
 Raman Activ --     23.3602                23.3602               188.6430

                     31                     32                     33
                     A2                      E                      E
 Frequencies --   3258.0924              3266.4866              3266.4866
 Red. masses --      1.1028                 1.1026                 1.1026
 Frc consts  --      6.8971                 6.9316                 6.9316
 IR Inten    --      0.0000                56.0548                56.0548
 Raman Activ --      0.0000               102.8893               102.8893

 - Thermochemistry -
 -------------------
 Temperature   298.150 Kelvin.  Pressure   1.00000 Atm.
 Atom     1 has atomic number  7 and mass  14.00307

 Molecular mass:    59.07350 amu.
 Principal axes and moments of inertia in atomic units:
                           1         2         3
     Eigenvalues --   210.52510 210.52510 375.65080
           X            0.86511   0.50158   0.00000
           Y           -0.50158   0.86511   0.00000
           Z            0.00000  -0.00000   1.00000
 This molecule is an oblate symmetric top.
 Rotational symmetry number  3.
 Rotational temperatures (Kelvin)      0.41142     0.41142     0.23057
 Rotational constants (GHZ):           8.57257     8.57257     4.80431
 Zero-point vibrational energy     338895.2 (Joules/Mol)
                                   80.99791 (Kcal/Mol)
 Warning -- explicit consideration of   6 degrees of freedom as
           vibrations may cause significant error
 Vibrational temperatures:    387.17   387.17   399.40   488.69   644.91
          (Kelvin)            644.91  1206.13  1618.13  1618.13  1684.71
                             1775.21  1775.21  1904.43  2037.23  2037.23
                             2304.81  2304.81  2362.09  2395.43  2395.43
                             2411.17  2424.95  2436.77  2436.77  4471.30
                             4471.30  4487.33  4636.36  4636.36  4648.76
                             4687.67  4699.75  4699.75

 Zero-point correction=                           0.129078 (Hartree/Particle)
 Thermal correction to Energy=                    0.134392
 Thermal correction to Enthalpy=                  0.135337
 Thermal correction to Gibbs Free Energy=         0.102846
 Sum of electronic and zero-point Energies=           -172.181191
 Sum of electronic and thermal Energies=              -172.175877
 Sum of electronic and thermal Enthalpies=            -172.174933
 Sum of electronic and thermal Free Energies=         -172.207423

                     E (Thermal)             CV                S
                      KCal/Mol        Cal/Mol-Kelvin    Cal/Mol-Kelvin
 Total                   84.332             17.888             68.381
 Electronic               0.000              0.000              0.000
 Translational            0.889              2.981             38.149
 Rotational               0.889              2.981             22.141
 Vibrational             82.555             11.926              8.091
 Vibration     1          0.673              1.730              1.602
 Vibration     2          0.673              1.730              1.602
 Vibration     3          0.679              1.715              1.548
 Vibration     4          0.720              1.596              1.214
 Vibration     5          0.807              1.365              0.801
 Vibration     6          0.807              1.365              0.801

 Optimization completed.
    -- Stationary point found.
 Normal termination of Gaussian 16 at Mon Jun 16 16:06:03 2025.
