 Gaussian 16, Revision B.01,
 Gaussian 16:  EM64L-G16RevB.01 20-Dec-2017

 -------------------------------------
 # hf/3-21g pop=full geom=connectivity
 -------------------------------------

 ------
 TMA sp
 ------
 Symbolic Z-matrix:
 Charge =  0 Multiplicity = 1

                         Standard orientation:
 ---------------------------------------------------------------------
 Center     Atomic      Atomic             Coordinates (Angstroms)
 Number     Number       Type             X           Y           Z
 ---------------------------------------------------------------------
      1          7           0       -0.000000    0.000000    0.337528
      2          6           0        0.000000    1.409666   -0.057136
      3          1           0       -0.877730    1.897468    0.348370
      4          1           0        0.877730    1.897468    0.348370
      5          1           0        0.000000    1.545874   -1.141490
      6          6           0       -1.220807   -0.704833   -0.057136
      7          1           0       -1.204391   -1.708871    0.348370
      8          1           0       -2.082121   -0.188598    0.348370
      9          1           0       -1.338766   -0.772937   -1.141490
     10          6           0        1.220807   -0.704833   -0.057136
     11          1           0        2.082121   -0.188598    0.348370
     12          1           0        1.204391   -1.708871    0.348370
     13          1           0        1.338766   -0.772937   -1.141490
 ---------------------------------------------------------------------

 SCF Done:  E(RHF) =  -172.310269527     A.U. after   10 cycles

 The electronic state is 1-A1.
 Alpha  occ. eigenvalues --  -15.46342 -11.17879 -11.17879 -11.17814  -1.21309
 Alpha  occ. eigenvalues --   -0.94994  -0.94994  -0.80540  -0.63543  -0.62517
 Alpha  occ. eigenvalues --   -0.62517  -0.54262  -0.54262  -0.51827  -0.49401
 Alpha  occ. eigenvalues --   -0.49401  -0.33368
 Alpha virt. eigenvalues --    0.25423   0.32229   0.32229   0.34198   0.34198
 Alpha virt. eigenvalues --    0.34761   0.37225   0.37650   0.37650   0.41628
 Alpha virt. eigenvalues --    0.48036   0.48036   0.88557   0.88557   0.91168

 Mulliken charges:
               1
     1  N   -0.681470
     2  C   -0.347483
     3  H    0.204559
     4  H    0.204559
     5  H    0.165522
     6  C   -0.347483
     7  H    0.204559
     8  H    0.204559
     9  H    0.165522
    10  C   -0.347483
    11  H    0.204559
    12  H    0.204559
    13  H    0.165522
 Sum of Mulliken charges =   0.00000

 Dipole moment (field-independent basis, Debye):
    X=              0.0000    Y=              0.0000    Z=             -0.8880  Tot=              0.8880
 Quadrupole moment (field-independent basis, Debye-Ang):
   XX=            -25.8435   YY=            -25.8435   ZZ=            -29.8962
   XY=             -0.0000   XZ=             -0.0000   YZ=             -0.0000

 Normal termination of Gaussian 16 at Mon Jun 16 16:06:32 2025.
