 Gaussian 16, Revision B.01,
 Gaussian 16:  EM64L-G16RevB.01 20-Dec-2017

 ----------------------------------------------
 # opt freq hf/3-21g pop=full geom=connectivity
 ----------------------------------------------

 --------
 TMA+ opt
 --------
 Symbolic Z-matrix:
 Charge =  1 Multiplicity = 1

 SCF Done:  E(RHF) =  -172.699155178     A.U. after   10 cycles
 SCF Done:  E(RHF) =  -172.705096862     A.U. after    9 cycles
 SCF Done:  E(RHF) =  -172.705514227     A.U. after    8 cycles
 SCF Done:  E(RHF) =  -172.705533781     A.U. after    8 cycles
 Optimization completed.
    -- Stationary point found.
 Normal termination of Gaussian 16 at Mon Jun 16 16:09:08 2025.

 --------------------------------------------------------------
 #N Geom=AllCheck Guess=TCheck SCRF=Check GenChk RHF/3-21G Freq
 --------------------------------------------------------------

 Structure from the checkpoint file:  "TMA_ion_opt.chk"
 --------
 TMA+ opt
 --------
 Charge =  1 Multiplicity = 1

                         Standard orientation:
 ---------------------------------------------------------------------
 Center     Atomic      Atomic             Coordinates (Angstroms)
 Number     Number       Type             X           Y           Z
 ---------------------------------------------------------------------
      1          7           0       -0.000000   -0.000000    0.358390
      2          6           0        0.000000    1.447994   -0.107809
      3          1           0       -0.886275    1.933525    0.269590
      4          1           0        0.886275    1.933525    0.269590
      5          1           0        0.000000    1.450042   -1.186392
      6          6           0       -1.254000   -0.723997   -0.107809
      7          1           0       -1.231344   -1.734299    0.269590
      8          1           0       -2.117619   -0.199225    0.269590
      9          1           0       -1.255773   -0.725021   -1.186392
     10          6           0        1.254000   -0.723997   -0.107809
     11          1           0        2.117619   -0.199225    0.269590
     12          1           0        1.231344   -1.734299    0.269590
     13          1           0        1.255773   -0.725021   -1.186392
     14          1           0       -0.000000   -0.000000    1.373463
 ---------------------------------------------------------------------

 SCF Done:  E(RHF) =  -172.705533781     A.U. after    1 cycles

 The electronic state is 1-A1.
 Alpha  occ. eigenvalues --  -15.81340 -11.41047 -11.41047 -11.40983  -1.51149
 Alpha  occ. eigenvalues --   -1.18451  -1.18451  -1.09586  -0.93733  -0.86341
 Alpha  occ. eigenvalues --   -0.86341  -0.77720  -0.77720  -0.74812  -0.74428
 Alpha  occ. eigenvalues --   -0.73442  -0.73442
 Alpha virt. eigenvalues --    0.02269   0.09501   0.11115   0.12137   0.12137
 Alpha virt. eigenvalues --    0.14701   0.14701   0.14704   0.17898   0.17898
 Alpha virt. eigenvalues --    0.19393   0.19393   0.21772   0.65429   0.65532

 Mulliken charges:
               1
     1  N   -0.778503
     2  C   -0.417607
     3  H    0.289218
     4  H    0.289218
     5  H    0.287694
     6  C   -0.417607
     7  H    0.289218
     8  H    0.289218
     9  H    0.287694
    10  C   -0.417607
    11  H    0.289218
    12  H    0.289218
    13  H    0.287694
    14  H    0.432933
 Sum of Mulliken charges =   1.00000

 Dipole moment (field-independent basis, Debye):
    X=              0.0000    Y=             -0.0000    Z=              0.8096  Tot=              0.8096
 Quadrupole moment (field-independent basis, Debye-Ang):
   XX=            -19.7740   YY=            -19.7740   ZZ=            -22.3872
   XY=             -0.0000   XZ=              0.0000   YZ=             -0.0000

  Exact polarizability:  35.229  -0.000  35.229   0.000  -0.000  30.948
 Approx polarizability:  27.661  -0.000  27.661   0.000  -0.000  27.827

                      1                      2                      3
                     A2                      E                      E
 Frequencies --    223.8411               274.1798               274.1798
 Red. masses --      1.0125                 1.0635                 1.0635
 Frc consts  --      0.0299                 0.0471                 0.0471
 IR Inten    --      0.0000                 0.0986                 0.0986
 Raman Activ --      0.0000                 0.0108                 0.0108

                      4                      5                      6
                      E                      E                     A1
 Frequencies --    409.4906               409.4907               485.2913
 Red. masses --      2.3250                 2.3250                 2.2817
 Frc consts  --      0.2297                 0.2297                 0.3166
 IR Inten    --      0.0699                 0.0699                 0.4457
 Raman Activ --      0.2476                 0.2476                 0.9418

                      7                      8                      9
                     A1                      E                      E
 Frequencies --    819.3335              1005.0317              1005.0317
 Red. masses --      3.6551                 3.5005                 3.5005
 Frc consts  --      1.4457                 2.0832                 2.0832
 IR Inten    --      4.9026                50.3859                50.3859
 Raman Activ --     17.1478                 9.7884                 9.7884

                     10                     11                     12
                      E                      E                     A2
 Frequencies --   1169.4416              1169.4416              1188.5600
 Red. masses --      1.1306                 1.1306                 1.1891
 Frc consts  --      0.9110                 0.9110                 0.9897
 IR Inten    --      6.4573                 6.4573                 0.0000
 Raman Activ --      0.3283                 0.3283                 0.0000

                     13                     14                     15
                      E                      E                     A1
 Frequencies --   1353.2250              1353.2250              1390.0759
 Red. masses --      1.5220                 1.5220                 1.6172
 Frc consts  --      1.6421                 1.6421                 1.8412
 IR Inten    --      0.9921                 0.9921                 0.0642
 Raman Activ --      3.3528                 3.3528                 2.9497

                     16                     17                     18
                      E                      E                      E
 Frequencies --   1554.9670              1554.9671              1609.8518
 Red. masses --      1.2050                 1.2050                 1.1514
 Frc consts  --      1.7166                 1.7166                 1.7581
 IR Inten    --     23.9842                23.9842                12.0666
 Raman Activ --      2.2367                 2.2367                 5.2830

                     19                     20                     21
                      E                     A2                     A1
 Frequencies --   1609.8518              1636.8183              1643.8586
 Red. masses --      1.1514                 1.0449                 1.1525
 Frc consts  --      1.7581                 1.6494                 1.8349
 IR Inten    --     12.0666                 0.0000                 7.3685
 Raman Activ --      5.2829                 0.0000                 0.6754

                     22                     23                     24
                      E                      E                      E
 Frequencies --   1653.6425              1653.6425              1666.6661
 Red. masses --      1.0312                 1.0312                 1.0529
 Frc consts  --      1.6614                 1.6614                 1.7232
 IR Inten    --      6.6730                 6.6730                55.9526
 Raman Activ --     38.8159                38.8159                11.6909

                     25                     26                     27
                      E                     A1                      E
 Frequencies --   1666.6661              1678.8867              3243.1612
 Red. masses --      1.0529                 1.0430                 1.0285
 Frc consts  --      1.7232                 1.7321                 6.3734
 IR Inten    --     55.9526                76.1604                 1.1546
 Raman Activ --     11.6909                 0.0722                 2.3614

                     28                     29                     30
                      E                     A1                     A2
 Frequencies --   3243.1612              3248.8599              3339.5205
 Red. masses --      1.0285                 1.0296                 1.1078
 Frc consts  --      6.3734                 6.4029                 7.2793
 IR Inten    --      1.1546                 0.0945                 0.0000
 Raman Activ --      2.3614               224.8850                 0.0000

                     31                     32                     33
                      E                      E                      E
 Frequencies --   3342.6847              3342.6847              3344.9637
 Red. masses --      1.1094                 1.1094                 1.1084
 Frc consts  --      7.3037                 7.3037                 7.3069
 IR Inten    --      0.0347                 0.0347                 0.2445
 Raman Activ --     12.2320                12.2320                68.8875

                     34                     35                     36
                      E                     A1                     A1
 Frequencies --   3344.9637              3347.6926              3614.5590
 Red. masses --      1.1084                 1.1086                 1.0770
 Frc consts  --      7.3069                 7.3200                 8.2903
 IR Inten    --      0.2445                 0.5416                97.4010
 Raman Activ --     68.8875                94.0526                44.2931

 - Thermochemistry -
 -------------------
 Temperature   298.150 Kelvin.  Pressure   1.00000 Atm.
 Atom     1 has atomic number  7 and mass  14.00307

 Molecular mass:    60.08132 amu.
 Principal axes and moments of inertia in atomic units:
                           1         2         3
     Eigenvalues --   226.42401 226.42401 389.94029
           X            0.97801   0.20854   0.00000
           Y           -0.20854   0.97801   0.00000
           Z            0.00000  -0.00000   1.00000
 This molecule is an oblate symmetric top.
 Rotational symmetry number  3.
 Rotational temperatures (Kelvin)      0.38253     0.38253     0.22212
 Rotational constants (GHZ):           7.97063     7.97063     4.62825
 Zero-point vibrational energy     382038.9 (Joules/Mol)
                                   91.30948 (Kcal/Mol)
 Warning -- explicit consideration of   6 degrees of freedom as
           vibrations may cause significant error
 Vibrational temperatures:    322.06   394.48   394.48   589.17   589.17
          (Kelvin)            698.23  1178.84  1446.02  1446.02  1682.57
                             1682.57  1710.07  1946.99  1946.99  2000.01
                             2237.25  2237.25  2316.22  2316.22  2355.02
                             2365.15  2379.22  2379.22  2397.96  2397.96
                             2415.54  4666.19  4666.19  4674.38  4804.83
                             4809.38  4809.38  4812.66  4812.66  4816.58
                             5200.54

 Zero-point correction=                           0.145511 (Hartree/Particle)
 Thermal correction to Energy=                    0.150869
 Thermal correction to Enthalpy=                  0.151813
 Thermal correction to Gibbs Free Energy=         0.119127
 Sum of electronic and zero-point Energies=           -172.560023
 Sum of electronic and thermal Energies=              -172.554665
 Sum of electronic and thermal Enthalpies=            -172.553721
 Sum of electronic and thermal Free Energies=         -172.586407

                     E (Thermal)             CV                S
                      KCal/Mol        Cal/Mol-Kelvin    Cal/Mol-Kelvin
 Total                   94.671             18.300             68.793
 Electronic               0.000              0.000              0.000
 Translational            0.889              2.981             38.199
 Rotational               0.889              2.981             22.323
 Vibrational             92.894             12.338              8.271
 Vibration     1          0.649              1.805              1.928
 Vibration     2          0.676              1.721              1.570
 Vibration     3          0.676              1.721              1.570
 Vibration     4          0.774              1.450              0.928
 Vibration     5          0.774              1.450              0.928
 Vibration     6          0.841              1.283              0.696

 Optimization completed.
    -- Stationary point found.
 Normal termination of Gaussian 16 at Mon Jun 16 16:09:09 2025.
