 Gaussian 16, Revision B.01,
 Gaussian 16:  EM64L-G16RevB.01 20-Dec-2017

 -------------------------------------
 # hf/3-21g pop=full geom=connectivity
 -------------------------------------

 ----------------
 BCl3 only adduct
 ----------------
 Symbolic Z-matrix:
 Charge =  0 Multiplicity = 1

                         Standard orientation:
 ---------------------------------------------------------------------
 Center     Atomic      Atomic             Coordinates (Angstroms)
 Number     Number       Type             X           Y           Z
 ---------------------------------------------------------------------
      1          5           0        0.000000   -0.000000    0.443705
      2         17           0       -0.000000    1.810649   -0.043500
      3         17           0        1.568068   -0.905324   -0.043500
      4         17           0       -1.568068   -0.905324   -0.043500
 ---------------------------------------------------------------------

 SCF Done:  E(RHF) =  -1396.49330245     A.U. after   11 cycles

 The electronic state is 1-A1.
 Alpha  occ. eigenvalues -- -104.14992-104.14992-104.14964 -10.54401 -10.54401
 Alpha  occ. eigenvalues --  -10.54309  -8.00677  -8.00677  -8.00655  -8.00314
 Alpha  occ. eigenvalues --   -8.00314  -8.00306  -8.00292  -8.00267  -8.00267
 Alpha  occ. eigenvalues --   -7.81558  -1.18153  -1.12618  -1.12618  -0.70712
 Alpha  occ. eigenvalues --   -0.59812  -0.59812  -0.55551  -0.50188  -0.50188
 Alpha  occ. eigenvalues --   -0.48626  -0.48626  -0.47597
 Alpha virt. eigenvalues --   -0.02446   0.16105   0.19201   0.19201   0.56788
 Alpha virt. eigenvalues --    0.56788   0.57595   0.64446   0.73627   0.73627
 Alpha virt. eigenvalues --    0.74848   0.74848   0.75949   0.81259   0.84031

 Mulliken charges:
               1
     1  B    0.337223
     2  Cl  -0.112408
     3  Cl  -0.112408
     4  Cl  -0.112408
 Sum of Mulliken charges =   0.00000

 Dipole moment (field-independent basis, Debye):
    X=             -0.0000    Y=              0.0000    Z=              1.5390  Tot=              1.5390
 Quadrupole moment (field-independent basis, Debye-Ang):
   XX=            -48.8642   YY=            -48.8642   ZZ=            -42.8375
   XY=             -0.0000   XZ=              0.0000   YZ=              0.0000

 Normal termination of Gaussian 16 at Mon Jun 16 21:49:58 2025.
