 Gaussian 16, Revision B.01,
 Gaussian 16:  EM64L-G16RevB.01 20-Dec-2017

 -------------------------------------
 # hf/3-21g pop=full geom=connectivity
 -------------------------------------

 -------------------
 Title Card Required
 -------------------
 Symbolic Z-matrix:
 Charge =  0 Multiplicity = 1

                         Standard orientation:
 ---------------------------------------------------------------------
 Center     Atomic      Atomic             Coordinates (Angstroms)
 Number     Number       Type             X           Y           Z
 ---------------------------------------------------------------------
      1          5           0        0.000000   -0.000000    0.114656
      2         17           0        0.000000    1.810649   -0.372549
      3         17           0        1.568068   -0.905324   -0.372549
      4         17           0       -1.568068   -0.905324   -0.372549
      5          7           0        0.000000   -0.000000    1.740915
      6          1           0        0.829356    0.478829    2.080111
      7          1           0       -0.829356    0.478829    2.080111
      8          1           0       -0.000000   -0.957658    2.080111
 ---------------------------------------------------------------------

 SCF Done:  E(RHF) =  -1452.48361980     A.U. after   11 cycles

 The electronic state is 1-A1.
 Alpha  occ. eigenvalues -- -104.08718-104.08718-104.08692 -15.64702 -10.48260
 Alpha  occ. eigenvalues --  -10.48260 -10.48176  -7.94561  -7.94561  -7.94540
 Alpha  occ. eigenvalues --   -7.94213  -7.94213  -7.94210  -7.94206  -7.94186
 Alpha  occ. eigenvalues --   -7.94186  -7.73516  -1.33405  -1.12677  -1.07718
 Alpha  occ. eigenvalues --   -1.07718  -0.80160  -0.80160  -0.76408  -0.60634
 Alpha  occ. eigenvalues --   -0.54538  -0.54538  -0.46457  -0.46190  -0.46190
 Alpha  occ. eigenvalues --   -0.43888  -0.43888  -0.42668
 Alpha virt. eigenvalues --    0.17105   0.21414   0.22537   0.22537   0.26497
 Alpha virt. eigenvalues --    0.26497   0.33598   0.65820   0.65965   0.65965
 Alpha virt. eigenvalues --    0.72143   0.78246   0.78246   0.79924   0.79924

 Mulliken charges:
               1
     1  B    0.269326
     2  Cl  -0.208602
     3  Cl  -0.208602
     4  Cl  -0.208602
     5  N   -0.901920
     6  H    0.419467
     7  H    0.419467
     8  H    0.419467
 Sum of Mulliken charges =   0.00000

 Dipole moment (field-independent basis, Debye):
    X=              0.0000    Y=              0.0000    Z=              7.9009  Tot=              7.9009
 Quadrupole moment (field-independent basis, Debye-Ang):
   XX=            -58.2163   YY=            -58.2163   ZZ=            -39.6253
   XY=              0.0000   XZ=             -0.0000   YZ=             -0.0000

 Normal termination of Gaussian 16 at Mon Jun 16 21:39:45 2025.
