 Gaussian 16, Revision B.01,
 Gaussian 16:  EM64L-G16RevB.01 20-Dec-2017

 -------------------------------------
 # hf/3-21g pop=full geom=connectivity
 -------------------------------------

 ------------------
 NH3 only adduct sp
 ------------------
 Symbolic Z-matrix:
 Charge =  0 Multiplicity = 1

                         Standard orientation:
 ---------------------------------------------------------------------
 Center     Atomic      Atomic             Coordinates (Angstroms)
 Number     Number       Type             X           Y           Z
 ---------------------------------------------------------------------
      1          7           0        0.000000    0.000000    0.101759
      2          1           0        0.000000    0.957658   -0.237437
      3          1           0        0.829356   -0.478829   -0.237437
      4          1           0       -0.829356   -0.478829   -0.237437
 ---------------------------------------------------------------------

 SCF Done:  E(RHF) =  -55.8715594164     A.U. after   10 cycles

 The electronic state is 1-A1.
 Alpha  occ. eigenvalues --  -15.44133  -1.12279  -0.61269  -0.61269  -0.39671
 Alpha virt. eigenvalues --    0.26896   0.37086   0.37086   1.16905   1.16905
 Alpha virt. eigenvalues --    1.31005   1.41565   1.58796   1.58796   2.58515

 Mulliken charges:
               1
     1  N   -0.852371
     2  H    0.284124
     3  H    0.284124
     4  H    0.284124
 Sum of Mulliken charges =   0.00000

 Dipole moment (field-independent basis, Debye):
    X=             -0.0000    Y=              0.0000    Z=             -1.9980  Tot=              1.9980
 Quadrupole moment (field-independent basis, Debye-Ang):
   XX=             -5.8809   YY=             -5.8809   ZZ=             -8.6489
   XY=             -0.0000   XZ=              0.0000   YZ=              0.0000

 Normal termination of Gaussian 16 at Mon Jun 16 21:51:42 2025.
