 Gaussian 16, Revision B.01,
 Gaussian 16:  EM64L-G16RevB.01 20-Dec-2017

 ----------------------------------------------
 # opt freq hf/3-21g pop=full geom=connectivity
 ----------------------------------------------

 -------------------
 Title Card Required
 -------------------
 Symbolic Z-matrix:
 Charge =  0 Multiplicity = 1

 SCF Done:  E(RHF) =  -1452.47833383     A.U. after   11 cycles
 SCF Done:  E(RHF) =  -1452.48333609     A.U. after   11 cycles
 SCF Done:  E(RHF) =  -1452.48358341     A.U. after    9 cycles
 SCF Done:  E(RHF) =  -1452.48361980     A.U. after    8 cycles
 Optimization completed.
    -- Stationary point found.
 Normal termination of Gaussian 16 at Mon Jun 16 21:39:10 2025.

 --------------------------------------------------------------
 #N Geom=AllCheck Guess=TCheck SCRF=Check GenChk RHF/3-21G Freq
 --------------------------------------------------------------

 Structure from the checkpoint file:  "NH3_Bcl3_opt.chk"
 -------------------
 Title Card Required
 -------------------
 Charge =  0 Multiplicity = 1

                         Standard orientation:
 ---------------------------------------------------------------------
 Center     Atomic      Atomic             Coordinates (Angstroms)
 Number     Number       Type             X           Y           Z
 ---------------------------------------------------------------------
      1          5           0       -0.000000    0.000000    0.114656
      2         17           0       -0.000000    1.810649   -0.372549
      3         17           0        1.568068   -0.905324   -0.372549
      4         17           0       -1.568068   -0.905324   -0.372549
      5          7           0       -0.000000    0.000000    1.740915
      6          1           0        0.829356    0.478829    2.080111
      7          1           0       -0.829356    0.478829    2.080111
      8          1           0       -0.000000   -0.957658    2.080111
 ---------------------------------------------------------------------

 SCF Done:  E(RHF) =  -1452.48361980     A.U. after    1 cycles

 The electronic state is 1-A1.
 Alpha  occ. eigenvalues -- -104.08718-104.08718-104.08692 -15.64702 -10.48260
 Alpha  occ. eigenvalues --  -10.48260 -10.48176  -7.94561  -7.94561  -7.94540
 Alpha  occ. eigenvalues --   -7.94213  -7.94213  -7.94210  -7.94206  -7.94186
 Alpha  occ. eigenvalues --   -7.94186  -7.73516  -1.33405  -1.12677  -1.07718
 Alpha  occ. eigenvalues --   -1.07718  -0.80160  -0.80160  -0.76408  -0.60634
 Alpha  occ. eigenvalues --   -0.54538  -0.54538  -0.46457  -0.46190  -0.46190
 Alpha  occ. eigenvalues --   -0.43888  -0.43888  -0.42668
 Alpha virt. eigenvalues --    0.17105   0.21414   0.22537   0.22537   0.26497
 Alpha virt. eigenvalues --    0.26497   0.33598   0.65820   0.65965   0.65965
 Alpha virt. eigenvalues --    0.72143   0.78246   0.78246   0.79924   0.79924

 Mulliken charges:
               1
     1  B    0.269326
     2  Cl  -0.208602
     3  Cl  -0.208602
     4  Cl  -0.208602
     5  N   -0.901920
     6  H    0.419467
     7  H    0.419467
     8  H    0.419467
 Sum of Mulliken charges =  -0.00000

 Dipole moment (field-independent basis, Debye):
    X=              0.0000    Y=             -0.0000    Z=              7.9009  Tot=              7.9009
 Quadrupole moment (field-independent basis, Debye-Ang):
   XX=            -58.2163   YY=            -58.2163   ZZ=            -39.6252
   XY=             -0.0000   XZ=             -0.0000   YZ=             -0.0000

  Exact polarizability:  45.411   0.000  45.411  -0.000   0.000  26.428
 Approx polarizability:  38.131   0.000  38.131  -0.000  -0.000  20.847

                      1                      2                      3
                      E                      E                     A2
 Frequencies --    214.9640               214.9640               230.1444
 Red. masses --     11.5721                11.5721                 1.0157
 Frc consts  --      0.3151                 0.3151                 0.0317
 IR Inten    --      5.5703                 5.5703                 0.0000
 Raman Activ --      4.4262                 4.4262                 0.0000

                      4                      5                      6
                      E                      E                     A1
 Frequencies --    303.0289               303.0290               310.5394
 Red. masses --      4.3593                 4.3593                12.1048
 Frc consts  --      0.2358                 0.2358                 0.6878
 IR Inten    --      3.1445                 3.1445                13.7827
 Raman Activ --      2.6364                 2.6364                 6.3882

                      7                      8                      9
                     A1                      E                      E
 Frequencies --    457.8014               656.3621               656.3622
 Red. masses --      8.7999                 4.8706                 4.8706
 Frc consts  --      1.0866                 1.2363                 1.2363
 IR Inten    --     31.9230               190.6468               190.6468
 Raman Activ --      7.1714                 4.1416                 4.1416

                     10                     11                     12
                     A1                      E                      E
 Frequencies --    844.6999              1112.2091              1112.2092
 Red. masses --      8.0035                 1.4567                 1.4567
 Frc consts  --      3.3646                 1.0617                 1.0617
 IR Inten    --    158.3757               229.5103               229.5104
 Raman Activ --      0.0397                 1.2162                 1.2162

                     13                     14                     15
                     A1                      E                      E
 Frequencies --   1608.2465              1822.1629              1822.1629
 Red. masses --      1.1798                 1.0584                 1.0584
 Frc consts  --      1.7979                 2.0705                 2.0705
 IR Inten    --    321.5746                54.5853                54.5852
 Raman Activ --      1.2460                 7.4735                 7.4735

                     16                     17                     18
                     A1                      E                      E
 Frequencies --   3546.9553              3649.7975              3649.7975
 Red. masses --      1.0257                 1.0923                 1.0923
 Frc consts  --      7.6028                 8.5730                 8.5730
 IR Inten    --     53.9572               109.9203               109.9203
 Raman Activ --     68.3838                47.2244                47.2244

 - Thermochemistry -
 -------------------
 Temperature   298.150 Kelvin.  Pressure   1.00000 Atm.
 Atom     1 has atomic number  5 and mass  11.00931

 Molecular mass:   132.94241 amu.
 Principal axes and moments of inertia in atomic units:
                           1         2         3
     Eigenvalues --   868.46283 868.462831238.10093
           X            1.00000   0.00166   0.00000
           Y           -0.00166   1.00000   0.00000
           Z            0.00000  -0.00000   1.00000
 This molecule is an oblate symmetric top.
 Rotational symmetry number  3.
 Warning -- assumption of classical behavior for rotation
           may cause significant error
 Rotational temperatures (Kelvin)      0.09973     0.09973     0.06996
 Rotational constants (GHZ):           2.07809     2.07809     1.45767
 Zero-point vibrational energy     134672.2 (Joules/Mol)
                                   32.18743 (Kcal/Mol)
 Warning -- explicit consideration of   7 degrees of freedom as
           vibrations may cause significant error
 Vibrational temperatures:    309.29   309.29   331.13   435.99   435.99
          (Kelvin)            446.80   658.67   944.36   944.36  1215.33
                             1600.22  1600.22  2313.91  2621.69  2621.69
                             5103.28  5251.24  5251.24

 Zero-point correction=                           0.051294 (Hartree/Particle)
 Thermal correction to Energy=                    0.057597
 Thermal correction to Enthalpy=                  0.058541
 Thermal correction to Gibbs Free Energy=         0.021218
 Sum of electronic and zero-point Energies=          -1452.432326
 Sum of electronic and thermal Energies=             -1452.426023
 Sum of electronic and thermal Enthalpies=           -1452.425079
 Sum of electronic and thermal Free Energies=        -1452.462402

                     E (Thermal)             CV                S
                      KCal/Mol        Cal/Mol-Kelvin    Cal/Mol-Kelvin
 Total                   36.142             20.773             78.552
 Electronic               0.000              0.000              0.000
 Translational            0.889              2.981             40.567
 Rotational               0.889              2.981             26.142
 Vibrational             34.365             14.812             11.843
 Vibration     1          0.645              1.818              2.001
 Vibration     2          0.645              1.818              2.001
 Vibration     3          0.652              1.795              1.878
 Vibration     4          0.694              1.668              1.400
 Vibration     5          0.694              1.668              1.400
 Vibration     6          0.699              1.654              1.359
 Vibration     7          0.816              1.344              0.773

 Optimization completed.
    -- Stationary point found.
 Normal termination of Gaussian 16 at Mon Jun 16 21:39:11 2025.
