 Gaussian 16, Revision B.01,
 Gaussian 16:  EM64L-G16RevB.01 20-Dec-2017

 ---------------------------------------------
 #p hf/3-21g opt freq gfinput gfprint pop=full
 ---------------------------------------------

 ------------
 Optimisation
 ------------
 Symbolic Z-matrix:
 Charge = -1 Multiplicity = 1

 SCF Done:  E(RHF) =  -306.253763592     A.U. after   23 cycles
 SCF Done:  E(RHF) =  -306.285178024     A.U. after   17 cycles
 SCF Done:  E(RHF) =  -306.305197543     A.U. after   16 cycles
 SCF Done:  E(RHF) =  -306.323229816     A.U. after   17 cycles
 SCF Done:  E(RHF) =  -306.337551272     A.U. after   19 cycles
 SCF Done:  E(RHF) =  -306.341435308     A.U. after   17 cycles
 SCF Done:  E(RHF) =  -306.343683644     A.U. after   18 cycles
 SCF Done:  E(RHF) =  -306.344220971     A.U. after   17 cycles
 SCF Done:  E(RHF) =  -306.344558940     A.U. after   17 cycles
 SCF Done:  E(RHF) =  -306.344900502     A.U. after   17 cycles
 SCF Done:  E(RHF) =  -306.346154117     A.U. after   16 cycles
 SCF Done:  E(RHF) =  -306.346168473     A.U. after   15 cycles
 SCF Done:  E(RHF) =  -306.346171952     A.U. after   11 cycles
 SCF Done:  E(RHF) =  -306.346172657     A.U. after   11 cycles
 SCF Done:  E(RHF) =  -306.346172832     A.U. after   10 cycles
 SCF Done:  E(RHF) =  -306.346172953     A.U. after   11 cycles
 SCF Done:  E(RHF) =  -306.346173143     A.U. after   11 cycles
 SCF Done:  E(RHF) =  -306.346173276     A.U. after   11 cycles
 SCF Done:  E(RHF) =  -306.346173356     A.U. after   11 cycles
 Optimization completed.
    -- Stationary point found.

 1\1\GINC-USER-HP-Z2-G9-WS\FOpt\RHF\3-21G\C8H9(1-)\USER\10-Jun-2025\0\\
 #p hf/3-21g opt freq gfinput gfprint pop=full\\Optimisation\\-1,1\C,-1
 .9124539224,3.0024971036,1.6679553023\C,-0.5451939661,3.0686429088,1.5
 727175409\C,0.3708853465,4.0608009988,1.9059329113\C,-2.8079653328,4.1
 335976398,1.9861636547\C,0.0442686923,5.2401096446,2.6770451385\C,-2.4
 865173281,5.308223131,2.5204253419\C,-1.1427477994,5.7645648977,2.9963
 887966\H,-2.4005123008,2.0912995875,1.3661955608\H,-0.0902990721,2.169
 9551436,1.1689240431\H,1.4145893779,3.8667231754,1.732268687\H,0.90616

 Normal termination of Gaussian 16 at Tue Jun 10 01:53:55 2025.

 --------------------------------------------------------------
 #P Geom=AllCheck Guess=TCheck SCRF=Check GenChk RHF/3-21G Freq
 --------------------------------------------------------------

 Structure from the checkpoint file:  "cycloheptatrienyl_anion.chk"
 ------------
 Optimisation
 ------------
 Charge = -1 Multiplicity = 1

                         Standard orientation:
 ---------------------------------------------------------------------
 Center     Atomic      Atomic             Coordinates (Angstroms)
 Number     Number       Type             X           Y           Z
 ---------------------------------------------------------------------
      1          6           0        0.535249    1.256596    0.213586
      2          6           0       -0.790037    1.549050    0.011266
      3          6           0       -1.906623    0.745571   -0.194328
      4          6           0        1.157241   -0.073265    0.048720
      5          6           0       -1.917404   -0.689412   -0.013310
      6          6           0        0.554853   -1.256807   -0.021032
      7          6           0       -0.906068   -1.553866    0.113032
      8          1           0        1.216735    2.072830    0.383529
      9          1           0       -1.011022    2.611415    0.024069
     10          1           0       -2.859526    1.226071   -0.329377
     11          1           0       -2.909757   -1.116730    0.073504
     12          1           0        1.167601   -2.123470   -0.221208
     13          1           0       -1.139059   -2.586920    0.319058
     14          6           0        2.670080   -0.005768   -0.119842
     15          1           0        2.919127    0.591533   -0.994539
     16          1           0        3.119042    0.483012    0.743298
     17          1           0        3.113111   -0.990336   -0.226896
 ---------------------------------------------------------------------

 SCF Done:  E(RHF) =  -306.346173356     A.U. after    1 cycles

 The electronic state is 1-A.
 Alpha  occ. eigenvalues --  -11.00694 -10.99708 -10.98843 -10.98578 -10.96437
 Alpha  occ. eigenvalues --  -10.95339 -10.92159 -10.91276  -0.92370  -0.86362
 Alpha  occ. eigenvalues --   -0.82676  -0.76424  -0.68961  -0.63740  -0.51684
 Alpha  occ. eigenvalues --   -0.49888  -0.48036  -0.41727  -0.41041  -0.39669
 Alpha  occ. eigenvalues --   -0.39116  -0.33377  -0.32261  -0.30501  -0.27111
 Alpha  occ. eigenvalues --   -0.25346  -0.17786  -0.17248   0.01477
 Alpha virt. eigenvalues --    0.30277   0.42067   0.44517   0.45342   0.46778
 Alpha virt. eigenvalues --    0.48845   0.50135   0.51575   0.54420   0.55964
 Alpha virt. eigenvalues --    0.56510   0.57073   0.62196   0.64508   0.70295

 Mulliken charges:
               1
     1  C   -0.389110
     2  C   -0.106730
     3  C   -0.436873
     4  C   -0.015585
     5  C   -0.150103
     6  C   -0.272072
     7  C   -0.316423
     8  H    0.112858
     9  H    0.138928
    10  H    0.107031
    11  H    0.138992
    12  H    0.132934
    13  H    0.127325
    14  C   -0.582239
    15  H    0.178282
    16  H    0.170184
    17  H    0.162601
 Sum of Mulliken charges =  -1.00000

 Dipole moment (field-independent basis, Debye):
    X=              2.1723    Y=             -0.6083    Z=             -0.0482  Tot=              2.2564
 Quadrupole moment (field-independent basis, Debye-Ang):
   XX=            -61.1665   YY=            -57.5676   ZZ=            -58.6922
   XY=              0.3706   XZ=             -0.8067   YZ=             -0.0176

  Exact polarizability: 105.271   3.085  93.802   4.359  -0.234  29.474
 Approx polarizability:  88.032   2.337  85.895   5.203  -0.055  28.010

                      1                      2                      3
                      A                      A                      A
 Frequencies --     66.7097               156.9400               235.6376
 Red. masses --      3.0870                 2.1910                 1.1332
 Frc consts  --      0.0081                 0.0318                 0.0371
 IR Inten    --      0.6527                21.3480                13.3520
 Raman Activ --      6.1814                 4.8611                 2.1608

                      4                      5                      6
                      A                      A                      A
 Frequencies --    352.5459               364.3932               434.2377
 Red. masses --      2.2737                 2.7287                 5.3454
 Frc consts  --      0.1665                 0.2135                 0.5939
 IR Inten    --     96.5371                 6.6970                13.8418
 Raman Activ --      1.8457                 1.4333                 5.2569

                      7                      8                      9
                      A                      A                      A
 Frequencies --    478.5354               558.9057               596.7989
 Red. masses --      5.1610                 2.3936                 1.3156
 Frc consts  --      0.6963                 0.4405                 0.2761
 IR Inten    --      1.1177               149.4401                14.1910
 Raman Activ --      4.1456                 8.6925                 9.3319

                     10                     11                     12
                      A                      A                      A
 Frequencies --    623.5332               651.9214               712.9358
 Red. masses --      2.0527                 2.8961                 2.9625
 Frc consts  --      0.4702                 0.7252                 0.8872
 IR Inten    --     69.9962                 9.3969                 6.9157
 Raman Activ --     15.6297                 2.2983                17.8999

                     13                     14                     15
                      A                      A                      A
 Frequencies --    778.0730               814.1413               898.2785
 Red. masses --      1.9538                 2.0328                 1.5731
 Frc consts  --      0.6969                 0.7939                 0.7479
 IR Inten    --     59.1317               135.3832                28.3000
 Raman Activ --     14.2514                29.6886                14.7553

                     16                     17                     18
                      A                      A                      A
 Frequencies --    939.2394               982.5323               988.6415
 Red. masses --      3.9500                 2.7148                 3.1621
 Frc consts  --      2.0531                 1.5441                 1.8210
 IR Inten    --      5.6025                49.7327                74.2901
 Raman Activ --     12.1492                16.2077                 7.8659

                     19                     20                     21
                      A                      A                      A
 Frequencies --   1035.6473              1107.8894              1145.5145
 Red. masses --      3.7002                 1.3279                 2.1559
 Frc consts  --      2.3383                 0.9603                 1.6668
 IR Inten    --     53.8304                18.8145                 3.4550
 Raman Activ --      4.7518                 0.8612                 1.2792

                     22                     23                     24
                      A                      A                      A
 Frequencies --   1156.2812              1187.1016              1236.7999
 Red. masses --      1.4374                 1.5510                 2.0718
 Frc consts  --      1.1323                 1.2878                 1.8672
 IR Inten    --     58.1674                16.7273                95.3966
 Raman Activ --     13.2196                 6.0670                15.3409

                     25                     26                     27
                      A                      A                      A
 Frequencies --   1258.5937              1388.8419              1418.7135
 Red. masses --      1.7826                 1.1346                 1.0677
 Frc consts  --      1.6637                 1.2894                 1.2661
 IR Inten    --     42.6514                22.6291                 0.6144
 Raman Activ --      6.7752                15.3836                 0.3732

                     28                     29                     30
                      A                      A                      A
 Frequencies --   1518.1693              1547.1094              1570.7040
 Red. masses --      1.2881                 1.2182                 1.3560
 Frc consts  --      1.7492                 1.7179                 1.9711
 IR Inten    --     13.8770                 3.7917                 3.3433
 Raman Activ --      3.4723                11.9446                 5.0343

                     31                     32                     33
                      A                      A                      A
 Frequencies --   1615.6885              1639.9737              1651.4756
 Red. masses --      1.6195                 1.8794                 1.0510
 Frc consts  --      2.4908                 2.9782                 1.6889
 IR Inten    --     43.7986                45.0338                 1.5622
 Raman Activ --     18.9754                13.3413                27.7874

                     34                     35                     36
                      A                      A                      A
 Frequencies --   1669.8149              1801.3209              1847.2790
 Red. masses --      1.0709                 4.8118                 6.3601
 Frc consts  --      1.7593                 9.1989                12.7873
 IR Inten    --      3.7884               109.7653                48.7871
 Raman Activ --     27.0889                45.3648                20.3251

                     37                     38                     39
                      A                      A                      A
 Frequencies --   3154.6592              3186.2904              3189.0513
 Red. masses --      1.0357                 1.0835                 1.0973
 Frc consts  --      6.0728                 6.4812                 6.5750
 IR Inten    --     73.6327                85.7470                65.6880
 Raman Activ --    146.5666                95.5627               111.0054

                     40                     41                     42
                      A                      A                      A
 Frequencies --   3197.0846              3225.9068              3241.6916
 Red. masses --      1.0822                 1.0960                 1.0872
 Frc consts  --      6.5172                 6.7199                 6.7316
 IR Inten    --     65.9020                20.3204                88.8373
 Raman Activ --    112.5314                12.7533               123.9982

                     43                     44                     45
                      A                      A                      A
 Frequencies --   3271.0305              3281.9548              3301.2885
 Red. masses --      1.0902                 1.0859                 1.0894
 Frc consts  --      6.8727                 6.8913                 6.9954
 IR Inten    --    201.9739                83.5211                84.0538
 Raman Activ --    126.4452                89.5952               262.9904

 - Thermochemistry -
 -------------------
 Temperature   298.150 Kelvin.  Pressure   1.00000 Atm.
 Atom     1 has atomic number  6 and mass  12.00000

 Molecular mass:   105.07043 amu.
 Principal axes and moments of inertia in atomic units:
                           1         2         3
     Eigenvalues --   493.99306 954.315051424.15244
           X            0.99999   0.00191  -0.00286
           Y           -0.00191   1.00000   0.00008
           Z            0.00286  -0.00007   1.00000
 This molecule is an asymmetric top.
 Rotational symmetry number  1.
 Warning -- assumption of classical behavior for rotation
           may cause significant error
 Rotational temperatures (Kelvin)      0.17533     0.09076     0.06082
 Rotational constants (GHZ):           3.65337     1.89114     1.26724
 Zero-point vibrational energy     391656.6 (Joules/Mol)
                                   93.60818 (Kcal/Mol)
 Warning -- explicit consideration of   9 degrees of freedom as
           vibrations may cause significant error
 Vibrational temperatures:     95.98   225.80   339.03   507.23   524.28
          (Kelvin)            624.77   688.51   804.14   858.66   897.13
                              937.97  1025.76  1119.47  1171.37  1292.42
                             1351.36  1413.64  1422.43  1490.07  1594.01
                             1648.14  1663.63  1707.97  1779.48  1810.84
                             1998.23  2041.21  2184.31  2225.95  2259.89
                             2324.62  2359.56  2376.11  2402.49  2591.70
                             2657.82  4538.85  4584.36  4588.33  4599.89
                             4641.36  4664.07  4706.28  4722.00  4749.82

 Zero-point correction=                           0.149174 (Hartree/Particle)
 Thermal correction to Energy=                    0.156423
 Thermal correction to Enthalpy=                  0.157367
 Thermal correction to Gibbs Free Energy=         0.117583
 Sum of electronic and zero-point Energies=           -306.196999
 Sum of electronic and thermal Energies=              -306.189751
 Sum of electronic and thermal Enthalpies=            -306.188807
 Sum of electronic and thermal Free Energies=         -306.228591

                     E (Thermal)             CV                S
                      KCal/Mol        Cal/Mol-Kelvin    Cal/Mol-Kelvin
 Total                   98.157             27.629             83.733
 Electronic               0.000              0.000              0.000
 Translational            0.889              2.981             39.865
 Rotational               0.889              2.981             27.998
 Vibrational             96.379             21.668             15.869
 Vibration     1          0.598              1.970              4.248
 Vibration     2          0.621              1.895              2.586
 Vibration     3          0.655              1.786              1.836
 Vibration     4          0.729              1.570              1.155
 Vibration     5          0.738              1.546              1.103
 Vibration     6          0.795              1.396              0.845
 Vibration     7          0.835              1.298              0.714
 Vibration     8          0.914              1.120              0.526
 Vibration     9          0.955              1.039              0.455

 Optimization completed.
    -- Stationary point found.

 1\1\GINC-USER-HP-Z2-G9-WS\Freq\RHF\3-21G\C8H9(1-)\USER\10-Jun-2025\0\\
 #P Geom=AllCheck Guess=TCheck SCRF=Check GenChk RHF/3-21G Freq\\Optimi
 sation\\-1,1\C,-1.9124539224,3.0024971036,1.6679553023\C,-0.5451939661
 ,3.0686429088,1.5727175409\C,0.3708853465,4.0608009988,1.9059329113\C,
 -2.8079653328,4.1335976398,1.9861636547\C,0.0442686923,5.2401096446,2.
 6770451385\C,-2.4865173281,5.308223131,2.5204253419\C,-1.1427477994,5.
 7645648977,2.9963887966\H,-2.4005123008,2.0912995875,1.3661955608\H,-0
 .0902990721,2.1699551436,1.1689240431\H,1.4145893779,3.8667231754,1.73

 Normal termination of Gaussian 16 at Tue Jun 10 01:54:02 2025.
