 Gaussian 16, Revision B.01,
 Gaussian 16:  EM64L-G16RevB.01 20-Dec-2017

 ---------------------------------------------
 #p hf/3-21g opt freq gfinput gfprint pop=full
 ---------------------------------------------

 ------------
 Optimisation
 ------------
 Symbolic Z-matrix:
 Charge = -1 Multiplicity = 1

 SCF Done:  E(RHF) =  -306.285610253     A.U. after   19 cycles
 SCF Done:  E(RHF) =  -306.327333079     A.U. after   17 cycles
 SCF Done:  E(RHF) =  -306.359441465     A.U. after   17 cycles
 SCF Done:  E(RHF) =  -306.366194378     A.U. after   15 cycles
 SCF Done:  E(RHF) =  -306.368722483     A.U. after   15 cycles
 SCF Done:  E(RHF) =  -306.369152177     A.U. after   13 cycles
 SCF Done:  E(RHF) =  -306.369245198     A.U. after   13 cycles
 SCF Done:  E(RHF) =  -306.369258449     A.U. after   11 cycles
 SCF Done:  E(RHF) =  -306.369264195     A.U. after   10 cycles
 SCF Done:  E(RHF) =  -306.369265234     A.U. after    9 cycles
 SCF Done:  E(RHF) =  -306.369265383     A.U. after   10 cycles
 Optimization completed.
    -- Stationary point found.

 1\1\GINC-USER-HP-Z2-G9-WS\FOpt\RHF\3-21G\C8H9(1-)\USER\10-Jun-2025\0\\
 #p hf/3-21g opt freq gfinput gfprint pop=full\\Optimisation\\-1,1\C,-1
 .8406242406,2.9377563359,1.5822823934\C,-0.4668922818,3.0662177622,1.6
 249150074\C,0.3676199959,4.0730362982,2.096276606\C,-2.8164518749,3.97
 28927923,1.797600386\C,-0.0863301929,5.2268361683,2.8010675811\C,-2.29
 50643613,5.4083262757,1.6451686082\C,-1.30414176,5.7831666124,2.722269
 2906\H,-2.2344364698,1.969717074,1.3201184792\H,0.0629993934,2.1863849
 074,1.2806138037\H,1.4271871028,3.8801576429,2.0908177438\H,0.61463843

 Normal termination of Gaussian 16 at Tue Jun 10 01:50:41 2025.

 --------------------------------------------------------------
 #P Geom=AllCheck Guess=TCheck SCRF=Check GenChk RHF/3-21G Freq
 --------------------------------------------------------------

 Structure from the checkpoint file:  "cycloheptatrienyl_anion_isomer.chk"
 ------------
 Optimisation
 ------------
 Charge = -1 Multiplicity = 1

                         Standard orientation:
 ---------------------------------------------------------------------
 Center     Atomic      Atomic             Coordinates (Angstroms)
 Number     Number       Type             X           Y           Z
 ---------------------------------------------------------------------
      1          6           0       -0.519008    1.349158    0.003334
      2          6           0        0.849669    1.491239    0.112857
      3          6           0        1.897150    0.580696    0.035589
      4          6           0       -1.269394    0.121861    0.031102
      5          6           0        1.742902   -0.790858   -0.323722
      6          6           0       -0.540992   -1.078872    0.650148
      7          6           0        0.636071   -1.534564   -0.180180
      8          1           0       -1.101171    2.252769   -0.070777
      9          1           0        1.173016    2.519723    0.218226
     10          1           0        2.898764    0.975144    0.068643
     11          1           0        2.595707   -1.255622   -0.802747
     12          1           0        0.576838   -2.509748   -0.632247
     13          6           0       -2.551906   -0.004186   -0.354249
     14          1           0       -3.101857   -0.916703   -0.204254
     15          1           0       -3.077946    0.800396   -0.838870
     16          1           0       -0.186245   -0.776919    1.633163
     17          1           0       -1.244049   -1.895882    0.779590
 ---------------------------------------------------------------------

 SCF Done:  E(RHF) =  -306.369265383     A.U. after    1 cycles

 The electronic state is 1-A.
 Alpha  occ. eigenvalues --  -11.00054 -10.99077 -10.98996 -10.98753 -10.96681
 Alpha  occ. eigenvalues --  -10.94443 -10.94036 -10.93698  -0.93447  -0.86319
 Alpha  occ. eigenvalues --   -0.83998  -0.74819  -0.69966  -0.62435  -0.52949
 Alpha  occ. eigenvalues --   -0.49538  -0.49449  -0.43667  -0.41421  -0.39197
 Alpha  occ. eigenvalues --   -0.37382  -0.34346  -0.31167  -0.30050  -0.28566
 Alpha  occ. eigenvalues --   -0.25789  -0.19412  -0.14052  -0.01954
 Alpha virt. eigenvalues --    0.33111   0.39570   0.42138   0.46254   0.47609
 Alpha virt. eigenvalues --    0.49063   0.50693   0.52450   0.52868   0.55019
 Alpha virt. eigenvalues --    0.56148   0.57378   0.63321   0.66979   0.72070

 Mulliken charges:
               1
     1  C   -0.346048
     2  C   -0.157024
     3  C   -0.393338
     4  C    0.026130
     5  C   -0.174885
     6  C   -0.465875
     7  C   -0.282260
     8  H    0.133906
     9  H    0.144713
    10  H    0.122321
    11  H    0.144473
    12  H    0.143673
    13  C   -0.511512
    14  H    0.120730
    15  H    0.127288
    16  H    0.204451
    17  H    0.163256
 Sum of Mulliken charges =  -1.00000

 Dipole moment (field-independent basis, Debye):
    X=              0.6064    Y=             -0.8788    Z=              0.4694  Tot=              1.1663
 Quadrupole moment (field-independent basis, Debye-Ang):
   XX=            -66.9185   YY=            -56.4064   ZZ=            -57.8887
   XY=              0.9630   XZ=             -1.3294   YZ=              0.0599

  Exact polarizability: 130.236   0.961  88.235   4.575   2.085  33.739
 Approx polarizability: 110.306   4.956  79.200   3.846   3.062  31.400

                      1                      2                      3
                      A                      A                      A
 Frequencies --    147.9379               187.7242               376.7132
 Red. masses --      3.4233                 2.3447                 3.0041
 Frc consts  --      0.0441                 0.0487                 0.2512
 IR Inten    --      0.5711                 5.4144                 1.9978
 Raman Activ --      9.0150                 8.6367                10.1576

                      4                      5                      6
                      A                      A                      A
 Frequencies --    415.1497               437.9153               448.8087
 Red. masses --      3.9873                 2.3715                 3.5558
 Frc consts  --      0.4049                 0.2679                 0.4220
 IR Inten    --      8.8294                 2.4686                 4.6260
 Raman Activ --      7.8854                 3.4659                 1.8732

                      7                      8                      9
                      A                      A                      A
 Frequencies --    612.8027               649.3858               710.5426
 Red. masses --      2.5939                 2.0899                 1.2891
 Frc consts  --      0.5739                 0.5193                 0.3835
 IR Inten    --     42.8278                43.7656                22.7701
 Raman Activ --      7.8400                 5.6886                12.2668

                     10                     11                     12
                      A                      A                      A
 Frequencies --    725.1102               751.3295               784.8634
 Red. masses --      2.3535                 1.2183                 1.6044
 Frc consts  --      0.7291                 0.4052                 0.5823
 IR Inten    --      4.9981                45.5150                 9.0430
 Raman Activ --     17.6905                 4.7267                10.1198

                     13                     14                     15
                      A                      A                      A
 Frequencies --    799.5331               866.2912               937.2659
 Red. masses --      1.3346                 1.5776                 3.6081
 Frc consts  --      0.5027                 0.6976                 1.8675
 IR Inten    --     32.3618               135.0218                19.1838
 Raman Activ --     15.3618                14.7785                11.5251

                     16                     17                     18
                      A                      A                      A
 Frequencies --    967.7784               981.6252              1007.8680
 Red. masses --      3.6777                 3.0469                 2.7841
 Frc consts  --      2.0295                 1.7298                 1.6663
 IR Inten    --     28.8974                 1.2644                17.5470
 Raman Activ --     11.9210                 6.0100                 6.2298

                     19                     20                     21
                      A                      A                      A
 Frequencies --   1066.3485              1092.9519              1110.3654
 Red. masses --      2.0123                 1.5672                 1.3762
 Frc consts  --      1.3481                 1.1030                 0.9997
 IR Inten    --     24.4286                36.3034                17.6887
 Raman Activ --     25.2110                16.7759                 5.8674

                     22                     23                     24
                      A                      A                      A
 Frequencies --   1116.8880              1232.7414              1324.9599
 Red. masses --      1.7854                 1.6890                 1.2573
 Frc consts  --      1.3122                 1.5123                 1.3004
 IR Inten    --      8.4653                11.0446                32.0548
 Raman Activ --      6.5557                25.5663                32.2644

                     25                     26                     27
                      A                      A                      A
 Frequencies --   1374.4873              1385.9411              1420.9249
 Red. masses --      1.2564                 1.2878                 1.8754
 Frc consts  --      1.3985                 1.4574                 2.2309
 IR Inten    --     90.7520                30.3563               284.5930
 Raman Activ --     20.7337                19.5894                 7.5608

                     28                     29                     30
                      A                      A                      A
 Frequencies --   1445.3212              1519.6016              1555.8699
 Red. masses --      1.3049                 1.6478                 1.5221
 Frc consts  --      1.6060                 2.2419                 2.1709
 IR Inten    --     22.2691               168.4002                79.4723
 Raman Activ --      1.3690                 4.9837                30.1200

                     31                     32                     33
                      A                      A                      A
 Frequencies --   1562.2516              1635.9029              1643.6167
 Red. masses --      1.7241                 1.4271                 1.1987
 Frc consts  --      2.4792                 2.2502                 1.9079
 IR Inten    --    237.4905                43.6103                16.4470
 Raman Activ --     46.7277                48.2631                34.9197

                     34                     35                     36
                      A                      A                      A
 Frequencies --   1661.8598              1742.3531              1777.8396
 Red. masses --      2.0715                 2.9914                 4.4538
 Frc consts  --      3.3707                 5.3506                 8.2941
 IR Inten    --    170.8896               196.8255               110.3845
 Raman Activ --     13.0199               114.0666                77.7556

                     37                     38                     39
                      A                      A                      A
 Frequencies --   3165.1159              3206.7544              3208.7973
 Red. masses --      1.0609                 1.0823                 1.0929
 Frc consts  --      6.2617                 6.5571                 6.6302
 IR Inten    --     70.4366                48.5829                60.9185
 Raman Activ --     83.8085                67.0499                60.0998

                     40                     41                     42
                      A                      A                      A
 Frequencies --   3212.5054              3271.7794              3279.5535
 Red. masses --      1.0908                 1.0627                 1.0824
 Frc consts  --      6.6326                 6.7026                 6.8589
 IR Inten    --     75.6946                17.0986               105.9933
 Raman Activ --    163.6782                66.3302                86.2208

                     43                     44                     45
                      A                      A                      A
 Frequencies --   3289.3910              3302.3761              3334.5814
 Red. masses --      1.0887                 1.0923                 1.1123
 Frc consts  --      6.9408                 7.0184                 7.2870
 IR Inten    --    147.8952                57.2715                70.7595
 Raman Activ --    153.0448               291.8409               104.0793

 - Thermochemistry -
 -------------------
 Temperature   298.150 Kelvin.  Pressure   1.00000 Atm.
 Atom     1 has atomic number  6 and mass  12.00000

 Molecular mass:   105.07043 amu.
 Principal axes and moments of inertia in atomic units:
                           1         2         3
     Eigenvalues --   507.65394 892.757831303.51734
           X            0.99991   0.01370   0.00010
           Y           -0.01370   0.99990  -0.00155
           Z           -0.00012   0.00155   1.00000
 This molecule is an asymmetric top.
 Rotational symmetry number  1.
 Warning -- assumption of classical behavior for rotation
           may cause significant error
 Rotational temperatures (Kelvin)      0.17062     0.09702     0.06645
 Rotational constants (GHZ):           3.55506     2.02153     1.38452
 Zero-point vibrational energy     399252.0 (Joules/Mol)
                                   95.42352 (Kcal/Mol)
 Warning -- explicit consideration of   7 degrees of freedom as
           vibrations may cause significant error
 Vibrational temperatures:    212.85   270.09   542.01   597.31   630.06
          (Kelvin)            645.74   881.69   934.32  1022.31  1043.27
                             1081.00  1129.24  1150.35  1246.40  1348.52
                             1392.42  1412.34  1450.10  1534.24  1572.51
                             1597.57  1606.95  1773.64  1906.32  1977.58
                             1994.06  2044.39  2079.49  2186.37  2238.55
                             2247.73  2353.70  2364.80  2391.05  2506.86
                             2557.91  4553.90  4613.80  4616.74  4622.08
                             4707.36  4718.55  4732.70  4751.38  4797.72

 Zero-point correction=                           0.152067 (Hartree/Particle)
 Thermal correction to Energy=                    0.158452
 Thermal correction to Enthalpy=                  0.159396
 Thermal correction to Gibbs Free Energy=         0.121696
 Sum of electronic and zero-point Energies=           -306.217198
 Sum of electronic and thermal Energies=              -306.210814
 Sum of electronic and thermal Enthalpies=            -306.209869
 Sum of electronic and thermal Free Energies=         -306.247570

                     E (Thermal)             CV                S
                      KCal/Mol        Cal/Mol-Kelvin    Cal/Mol-Kelvin
 Total                   99.430             25.451             79.347
 Electronic               0.000              0.000              0.000
 Translational            0.889              2.981             39.865
 Rotational               0.889              2.981             27.871
 Vibrational             97.653             19.489             11.611
 Vibration     1          0.617              1.905              2.699
 Vibration     2          0.632              1.857              2.250
 Vibration     3          0.747              1.520              1.052
 Vibration     4          0.779              1.437              0.909
 Vibration     5          0.798              1.388              0.833
 Vibration     6          0.808              1.364              0.799
 Vibration     7          0.972              1.005              0.428

 Optimization completed.
    -- Stationary point found.

 1\1\GINC-USER-HP-Z2-G9-WS\Freq\RHF\3-21G\C8H9(1-)\USER\10-Jun-2025\0\\
 #P Geom=AllCheck Guess=TCheck SCRF=Check GenChk RHF/3-21G Freq\\Optimi
 sation\\-1,1\C,-1.8406242406,2.9377563359,1.5822823934\C,-0.4668922818
 ,3.0662177622,1.6249150074\C,0.3676199959,4.0730362982,2.096276606\C,-
 2.8164518749,3.9728927923,1.797600386\C,-0.0863301929,5.2268361683,2.8
 010675811\C,-2.2950643613,5.4083262757,1.6451686082\C,-1.30414176,5.78
 31666124,2.7222692906\H,-2.2344364698,1.969717074,1.3201184792\H,0.062
 9993934,2.1863849074,1.2806138037\H,1.4271871028,3.8801576429,2.090817

 Normal termination of Gaussian 16 at Tue Jun 10 01:50:48 2025.
