 Gaussian 16, Revision B.01,
 Gaussian 16:  EM64L-G16RevB.01 20-Dec-2017

 ---------------------------------------------
 #p hf/3-21g opt freq gfinput gfprint pop=full
 ---------------------------------------------

 ------------
 optimisation
 ------------
 Symbolic Z-matrix:
 Charge =  1 Multiplicity = 1

 SCF Done:  E(RHF) =  -306.085450669     A.U. after   19 cycles
 SCF Done:  E(RHF) =  -306.123572898     A.U. after   19 cycles
 SCF Done:  E(RHF) =  -306.163788823     A.U. after   18 cycles
 SCF Done:  E(RHF) =  -306.196928901     A.U. after   16 cycles
 SCF Done:  E(RHF) =  -306.216326609     A.U. after   15 cycles
 SCF Done:  E(RHF) =  -306.217969253     A.U. after   15 cycles
 SCF Done:  E(RHF) =  -306.218839196     A.U. after   13 cycles
 SCF Done:  E(RHF) =  -306.218965621     A.U. after   13 cycles
 SCF Done:  E(RHF) =  -306.218988194     A.U. after   12 cycles
 SCF Done:  E(RHF) =  -306.218991230     A.U. after   10 cycles
 SCF Done:  E(RHF) =  -306.218997547     A.U. after   12 cycles
 SCF Done:  E(RHF) =  -306.219022114     A.U. after   12 cycles
 SCF Done:  E(RHF) =  -306.219025551     A.U. after   12 cycles
 SCF Done:  E(RHF) =  -306.219027454     A.U. after   11 cycles
 SCF Done:  E(RHF) =  -306.219027550     A.U. after   10 cycles
 SCF Done:  E(RHF) =  -306.219027606     A.U. after    9 cycles
 SCF Done:  E(RHF) =  -306.219027608     A.U. after    7 cycles
 SCF Done:  E(RHF) =  -306.219027595     A.U. after    8 cycles
 SCF Done:  E(RHF) =  -306.219027609     A.U. after    8 cycles
 Optimization completed.
    -- Stationary point found.

 1\1\GINC-USER-HP-Z2-G9-WS\FOpt\RHF\3-21G\C8H9(1+)\USER\10-Jun-2025\0\\
 #p hf/3-21g opt freq gfinput gfprint pop=full\\optimisation\\1,1\C,-1.
 0035618301,1.1567658308,-0.4747671257\C,0.3614780655,1.0901753816,-0.3
 076053306\C,1.2222563346,2.0123604296,0.2760402622\C,-1.9013440561,2.1
 601300657,-0.1087604055\C,0.9075169554,3.2296777394,0.8336674302\C,-1.
 5745985248,3.3523850753,0.5305161074\C,-0.3443661844,3.8209078034,0.94
 33225447\H,-1.4447331814,0.3066137267,-0.9611499523\H,0.8278200169,0.1
 984239864,-0.6815294649\H,2.2595237834,1.737604831,0.2918819305\H,1.72

 Normal termination of Gaussian 16 at Tue Jun 10 01:48:17 2025.

 --------------------------------------------------------------
 #P Geom=AllCheck Guess=TCheck SCRF=Check GenChk RHF/3-21G Freq
 --------------------------------------------------------------

 Structure from the checkpoint file:  "cycloheptatrienyl_cation.chk"
 ------------
 optimisation
 ------------
 Charge =  1 Multiplicity = 1

                         Standard orientation:
 ---------------------------------------------------------------------
 Center     Atomic      Atomic             Coordinates (Angstroms)
 Number     Number       Type             X           Y           Z
 ---------------------------------------------------------------------
      1          6           0        0.531032    1.230643    0.000000
      2          6           0       -0.809187    1.546116    0.000000
      3          6           0       -1.912028    0.700096    0.000003
      4          6           0        1.156008   -0.016802    0.000002
      5          6           0       -1.924280   -0.675303   -0.000002
      6          6           0        0.512269   -1.250701   -0.000000
      7          6           0       -0.836866   -1.539199   -0.000002
      8          1           0        1.197171    2.073387   -0.000005
      9          1           0       -1.034775    2.595699   -0.000005
     10          1           0       -2.870520    1.182752    0.000003
     11          1           0       -2.891030   -1.141025   -0.000002
     12          1           0        1.158612   -2.107068    0.000006
     13          1           0       -1.081133   -2.584683    0.000002
     14          6           0        2.675543   -0.003265    0.000001
     15          1           0        3.041025    0.516852   -0.878735
     16          1           0        3.041038    0.516998    0.878645
     17          1           0        3.084671   -1.002418    0.000079
 ---------------------------------------------------------------------

 SCF Done:  E(RHF) =  -306.219027609     A.U. after    1 cycles

 The electronic state is 1-A.
 Alpha  occ. eigenvalues --  -11.41935 -11.40511 -11.40395 -11.40186 -11.40021
 Alpha  occ. eigenvalues --  -11.39904 -11.39792 -11.32967  -1.36169  -1.28107
 Alpha  occ. eigenvalues --   -1.26552  -1.15617  -1.10724  -1.06050  -0.94208
 Alpha  occ. eigenvalues --   -0.93146  -0.90484  -0.83130  -0.80913  -0.76589
 Alpha  occ. eigenvalues --   -0.75173  -0.74446  -0.70299  -0.69686  -0.68719
 Alpha  occ. eigenvalues --   -0.68621  -0.57339  -0.55732
 Alpha virt. eigenvalues --   -0.14261  -0.13879   0.06392   0.11735   0.11905
 Alpha virt. eigenvalues --    0.12919   0.13563   0.16265   0.18072   0.21120
 Alpha virt. eigenvalues --    0.22269   0.22567   0.22955   0.25327   0.28264

 Mulliken charges:
               1
     1  C   -0.165496
     2  C   -0.186195
     3  C   -0.191666
     4  C   -0.057163
     5  C   -0.196967
     6  C   -0.175322
     7  C   -0.179474
     8  H    0.319001
     9  H    0.326421
    10  H    0.328035
    11  H    0.327593
    12  H    0.318551
    13  H    0.326954
    14  C   -0.608726
    15  H    0.277252
    16  H    0.277248
    17  H    0.259955
 Sum of Mulliken charges =   1.00000

 Dipole moment (field-independent basis, Debye):
    X=             -1.0171    Y=              0.0820    Z=             -0.0000  Tot=              1.0204
 Quadrupole moment (field-independent basis, Debye-Ang):
   XX=            -25.4075   YY=            -30.5105   ZZ=            -50.3263
   XY=              0.2165   XZ=             -0.0000   YZ=             -0.0000

  Exact polarizability: 100.243   0.596  85.949  -0.000  -0.000  25.595
 Approx polarizability:  93.688   0.657  88.298  -0.000   0.000  24.304

                      1                      2                      3
                      A                      A                      A
 Frequencies --     39.7446               148.0772               258.3266
 Red. masses --      1.0382                 3.0293                 2.9356
 Frc consts  --      0.0010                 0.0391                 0.1154
 IR Inten    --      0.9844                 0.2252                 0.0091
 Raman Activ --      0.3390                 2.7738                 0.0552

                      4                      5                      6
                      A                      A                      A
 Frequencies --    378.7570               381.6028               443.9018
 Red. masses --      2.7683                 2.7447                 5.8934
 Frc consts  --      0.2340                 0.2355                 0.6842
 IR Inten    --      0.0007                 7.0895                 0.0196
 Raman Activ --      0.2373                 0.7596                 5.3704

                      7                      8                      9
                      A                      A                      A
 Frequencies --    512.6733               636.2896               656.3246
 Red. masses --      6.1247                 2.5215                 2.0789
 Frc consts  --      0.9484                 0.6015                 0.5276
 IR Inten    --      0.0052                 0.2565                25.7162
 Raman Activ --      6.2734                 0.0203                 0.1343

                     10                     11                     12
                      A                      A                      A
 Frequencies --    728.8253               828.9234               943.6057
 Red. masses --      4.9609                 1.2357                 6.1291
 Frc consts  --      1.5526                 0.5003                 3.2153
 IR Inten    --      0.1160                95.0250                 0.3762
 Raman Activ --     18.5798                 0.4673                38.4445

                     13                     14                     15
                      A                      A                      A
 Frequencies --    984.8989               995.6096              1051.5267
 Red. masses --      5.5811                 1.2250                 3.2498
 Frc consts  --      3.1897                 0.7154                 2.1171
 IR Inten    --      0.6064                 0.1421                 6.5222
 Raman Activ --      0.1749                 5.5198                 5.1450

                     16                     17                     18
                      A                      A                      A
 Frequencies --   1062.4574              1089.5294              1197.8140
 Red. masses --      1.2754                 2.0418                 1.3965
 Frc consts  --      0.8482                 1.4280                 1.1805
 IR Inten    --      0.0525                 7.0805                 2.8459
 Raman Activ --      3.0750                 0.5580                 0.0791

                     19                     20                     21
                      A                      A                      A
 Frequencies --   1198.2456              1206.4217              1231.7729
 Red. masses --      1.6282                 1.4474                 4.2352
 Frc consts  --      1.3774                 1.2412                 3.7860
 IR Inten    --      2.4203                 7.4164                 6.4987
 Raman Activ --      0.6178                 0.0326                 4.1409

                     22                     23                     24
                      A                      A                      A
 Frequencies --   1233.5050              1246.5096              1387.4263
 Red. masses --      1.5422                 1.4700                 1.3820
 Frc consts  --      1.3826                 1.3457                 1.5674
 IR Inten    --      5.2647                 0.1096                 4.6844
 Raman Activ --      0.0810                 0.1291                 2.5681

                     25                     26                     27
                      A                      A                      A
 Frequencies --   1413.9316              1439.0057              1540.5815
 Red. masses --      1.3501                 1.3405                 2.3209
 Frc consts  --      1.5903                 1.6354                 3.2455
 IR Inten    --      0.0522                 9.4042                 3.7068
 Raman Activ --      1.2076                 1.8302                 2.7994

                     28                     29                     30
                      A                      A                      A
 Frequencies --   1582.8361              1605.2609              1612.8596
 Red. masses --      1.1776                 2.4973                 1.7394
 Frc consts  --      1.7383                 3.7915                 2.6659
 IR Inten    --     17.6695                18.6739                 4.4520
 Raman Activ --     19.4708                 4.6992                 1.6894

                     31                     32                     33
                      A                      A                      A
 Frequencies --   1650.0485              1650.5146              1662.5025
 Red. masses --      1.4041                 1.0406                 1.3368
 Frc consts  --      2.2525                 1.6702                 2.1768
 IR Inten    --      9.3680                18.2897                68.3269
 Raman Activ --      7.4455                22.7725                 4.7206

                     34                     35                     36
                      A                      A                      A
 Frequencies --   1686.8525              1746.7752              1783.6191
 Red. masses --      1.4468                 2.6182                 2.7855
 Frc consts  --      2.4255                 4.7068                 5.2210
 IR Inten    --     60.0132                 4.2746                 4.4291
 Raman Activ --      0.8375                23.4858                27.3091

                     37                     38                     39
                      A                      A                      A
 Frequencies --   3207.1177              3263.9230              3308.3065
 Red. masses --      1.0370                 1.1005                 1.0993
 Frc consts  --      6.2843                 6.9074                 7.0892
 IR Inten    --      0.9908                 0.1397                 4.8408
 Raman Activ --    170.3030                90.7216                42.2411

                     40                     41                     42
                      A                      A                      A
 Frequencies --   3341.5514              3347.2450              3353.7471
 Red. masses --      1.0887                 1.0890                 1.0895
 Frc consts  --      7.1623                 7.1885                 7.2200
 IR Inten    --      0.0392                 0.0519                 0.1013
 Raman Activ --     33.2149                15.6801                98.4845

                     43                     44                     45
                      A                      A                      A
 Frequencies --   3361.7329              3366.8198              3374.5326
 Red. masses --      1.0912                 1.0923                 1.0952
 Frc consts  --      7.2661                 7.2950                 7.3483
 IR Inten    --      0.6636                 1.5551                 1.0492
 Raman Activ --    103.7874                12.2867               266.6407

 - Thermochemistry -
 -------------------
 Temperature   298.150 Kelvin.  Pressure   1.00000 Atm.
 Atom     1 has atomic number  6 and mass  12.00000

 Molecular mass:   105.07043 amu.
 Principal axes and moments of inertia in atomic units:
                           1         2         3
     Eigenvalues --   477.01355 944.481801410.38023
           X            1.00000   0.00081  -0.00000
           Y           -0.00081   1.00000  -0.00000
           Z            0.00000   0.00000   1.00000
 This molecule is an asymmetric top.
 Rotational symmetry number  1.
 Warning -- assumption of classical behavior for rotation
           may cause significant error
 Rotational temperatures (Kelvin)      0.18158     0.09171     0.06141
 Rotational constants (GHZ):           3.78342     1.91083     1.27961
 Zero-point vibrational energy     413564.2 (Joules/Mol)
                                   98.84421 (Kcal/Mol)
 Warning -- explicit consideration of   7 degrees of freedom as
           vibrations may cause significant error
 Vibrational temperatures:     57.18   213.05   371.67   544.95   549.04
          (Kelvin)            638.68   737.62   915.48   944.30  1048.62
                             1192.64  1357.64  1417.05  1432.46  1512.91
                             1528.64  1567.59  1723.39  1724.01  1735.77
                             1772.25  1774.74  1793.45  1996.20  2034.33
                             2070.41  2216.55  2277.35  2309.61  2320.55
                             2374.05  2374.72  2391.97  2427.00  2513.22
                             2566.23  4614.33  4696.06  4759.92  4807.75
                             4815.94  4825.29  4836.78  4844.10  4855.20

 Zero-point correction=                           0.157518 (Hartree/Particle)
 Thermal correction to Energy=                    0.164265
 Thermal correction to Enthalpy=                  0.165209
 Thermal correction to Gibbs Free Energy=         0.125748
 Sum of electronic and zero-point Energies=           -306.061509
 Sum of electronic and thermal Energies=              -306.054763
 Sum of electronic and thermal Enthalpies=            -306.053819
 Sum of electronic and thermal Free Energies=         -306.093279

                     E (Thermal)             CV                S
                      KCal/Mol        Cal/Mol-Kelvin    Cal/Mol-Kelvin
 Total                  103.078             24.525             83.052
 Electronic               0.000              0.000              0.000
 Translational            0.889              2.981             39.865
 Rotational               0.889              2.981             27.943
 Vibrational            101.300             18.563             15.243
 Vibration     1          0.594              1.981              5.272
 Vibration     2          0.617              1.905              2.697
 Vibration     3          0.667              1.749              1.673
 Vibration     4          0.749              1.515              1.044
 Vibration     5          0.751              1.509              1.033
 Vibration     6          0.803              1.374              0.814
 Vibration     7          0.868              1.222              0.627

 Optimization completed.
    -- Stationary point found.

 1\1\GINC-USER-HP-Z2-G9-WS\Freq\RHF\3-21G\C8H9(1+)\USER\10-Jun-2025\0\\
 #P Geom=AllCheck Guess=TCheck SCRF=Check GenChk RHF/3-21G Freq\\optimi
 sation\\1,1\C,-1.0035618301,1.1567658308,-0.4747671257\C,0.3614780655,
 1.0901753816,-0.3076053306\C,1.2222563346,2.0123604296,0.2760402622\C,
 -1.9013440561,2.1601300657,-0.1087604055\C,0.9075169554,3.2296777394,0
 .8336674302\C,-1.5745985248,3.3523850753,0.5305161074\C,-0.3443661844,
 3.8209078034,0.9433225447\H,-1.4447331814,0.3066137267,-0.9611499523\H
 ,0.8278200169,0.1984239864,-0.6815294649\H,2.2595237834,1.737604831,0.

 Normal termination of Gaussian 16 at Tue Jun 10 01:48:25 2025.
