 Gaussian 16, Revision B.01,
 Gaussian 16:  EM64L-G16RevB.01 20-Dec-2017

 ---------------------------------------------
 #p hf/3-21g opt freq gfinput gfprint pop=full
 ---------------------------------------------

 --------------------------
 Methyl Napthalene opt+Freq
 --------------------------
 Symbolic Z-matrix:
 Charge =  0 Multiplicity = 1

 SCF Done:  E(RHF) =  -420.027699054     A.U. after   14 cycles
 SCF Done:  E(RHF) =  -420.036278731     A.U. after   14 cycles
 SCF Done:  E(RHF) =  -420.036784723     A.U. after   13 cycles
 SCF Done:  E(RHF) =  -420.037042192     A.U. after   12 cycles
 SCF Done:  E(RHF) =  -420.037183088     A.U. after   13 cycles
 SCF Done:  E(RHF) =  -420.037243378     A.U. after   11 cycles
 SCF Done:  E(RHF) =  -420.037249434     A.U. after   10 cycles
 SCF Done:  E(RHF) =  -420.037264737     A.U. after   11 cycles
 SCF Done:  E(RHF) =  -420.037266406     A.U. after   10 cycles
 SCF Done:  E(RHF) =  -420.037266520     A.U. after    8 cycles
 Optimization completed.
    -- Stationary point found.
 Normal termination of Gaussian 16 at Tue Jun 10 01:16:12 2025.

 --------------------------------------------------------------
 #P Geom=AllCheck Guess=TCheck SCRF=Check GenChk RHF/3-21G Freq
 --------------------------------------------------------------

 Structure from the checkpoint file:  "meth_napthalene.chk"
 --------------------------
 Methyl Napthalene opt+Freq
 --------------------------
 Charge =  0 Multiplicity = 1

                         Standard orientation:
 ---------------------------------------------------------------------
 Center     Atomic      Atomic             Coordinates (Angstroms)
 Number     Number       Type             X           Y           Z
 ---------------------------------------------------------------------
      1          6           0       -2.682308   -1.044829   -0.000001
      2          6           0       -1.404945   -1.505476   -0.000001
      3          6           0       -0.309986   -0.604754   -0.000002
      4          6           0       -0.567952    0.778237   -0.000001
      5          6           0       -1.910845    1.230250   -0.000001
      6          6           0       -2.940238    0.344731    0.000005
      7          1           0        1.218371   -2.115038   -0.000006
      8          1           0       -3.504606   -1.732512    0.000007
      9          1           0       -1.205662   -2.559705    0.000006
     10          6           0        1.036177   -1.057054   -0.000007
     11          6           0        0.533311    1.673956    0.000003
     12          1           0       -2.099718    2.286498    0.000005
     13          1           0       -3.954081    0.692512    0.000006
     14          6           0        1.805626    1.209506   -0.000010
     15          6           0        2.076961   -0.185349   -0.000008
     16          1           0        0.339503    2.729379    0.000009
     17          1           0        2.629913    1.896635    0.000000
     18          6           0        3.517862   -0.654224    0.000010
     19          1           0        4.038983   -0.285984   -0.877906
     20          1           0        4.038831   -0.286402    0.878193
     21          1           0        3.576482   -1.735347   -0.000243
 ---------------------------------------------------------------------

 SCF Done:  E(RHF) =  -420.037266520     A.U. after    1 cycles

 The electronic state is 1-A.
 Alpha  occ. eigenvalues --  -11.18763 -11.18678 -11.18513 -11.17822 -11.17725
 Alpha  occ. eigenvalues --  -11.17626 -11.17596 -11.17488 -11.17423 -11.17222
 Alpha  occ. eigenvalues --  -11.16479  -1.18257  -1.12219  -1.05422  -1.02872
 Alpha  occ. eigenvalues --   -0.99197  -0.93884  -0.84972  -0.82220  -0.81707
 Alpha  occ. eigenvalues --   -0.70898  -0.69882  -0.67185  -0.62412  -0.61739
 Alpha  occ. eigenvalues --   -0.59476  -0.58568  -0.58155  -0.55625  -0.54108
 Alpha  occ. eigenvalues --   -0.53233  -0.51256  -0.48123  -0.47057  -0.44396
 Alpha  occ. eigenvalues --   -0.38581  -0.31671  -0.28993
 Alpha virt. eigenvalues --    0.10463   0.13427   0.19936   0.26593   0.28185
 Alpha virt. eigenvalues --    0.28329   0.29216   0.31204   0.33428   0.35610
 Alpha virt. eigenvalues --    0.36308   0.36915   0.37209   0.39455   0.43332

 Mulliken charges:
               1
     1  C   -0.237239
     2  C   -0.197436
     3  C   -0.084512
     4  C   -0.102215
     5  C   -0.193886
     6  C   -0.241093
     7  H    0.232916
     8  H    0.239813
     9  H    0.238456
    10  C   -0.194494
    11  C   -0.187706
    12  H    0.238825
    13  H    0.239450
    14  C   -0.226166
    15  C   -0.069463
    16  H    0.239319
    17  H    0.236490
    18  C   -0.585165
    19  H    0.220382
    20  H    0.220390
    21  H    0.213336
 Sum of Mulliken charges =  -0.00000

 Dipole moment (field-independent basis, Debye):
    X=              0.4082    Y=              0.0132    Z=              0.0001  Tot=              0.4084
 Quadrupole moment (field-independent basis, Debye-Ang):
   XX=            -56.3462   YY=            -57.6224   ZZ=            -72.8058
   XY=             -0.0681   XZ=              0.0001   YZ=              0.0000

  Exact polarizability: 154.759   4.339 107.543   0.000   0.000  32.052
 Approx polarizability: 139.909   5.053 111.410  -0.000   0.000  31.277

                      1                      2                      3
                      A                      A                      A
 Frequencies --    109.5680               134.9413               203.0679
 Red. masses --      1.2278                 2.3044                 3.5923
 Frc consts  --      0.0087                 0.0247                 0.0873
 IR Inten    --      1.0001                 1.2124                 0.9914
 Raman Activ --      0.0929                 2.5262                 0.0334

                      4                      5                      6
                      A                      A                      A
 Frequencies --    283.8522               311.9621               449.1724
 Red. masses --      3.0397                 3.4526                 3.0005
 Frc consts  --      0.1443                 0.1980                 0.3567
 IR Inten    --      0.9998                 0.6146                 0.3588
 Raman Activ --      0.0633                 0.1926                 7.7227

                      7                      8                      9
                      A                      A                      A
 Frequencies --    452.7148               491.4728               546.1445
 Red. masses --      3.5659                 4.7425                 2.4280
 Frc consts  --      0.4306                 0.6749                 0.4267
 IR Inten    --      1.5668                 0.0662                29.5387
 Raman Activ --      1.0751                12.6312                 0.1506

                     10                     11                     12
                      A                      A                      A
 Frequencies --    578.8215               582.7724               706.1901
 Red. masses --      3.0843                 6.5090                 6.4430
 Frc consts  --      0.6088                 1.3025                 1.8931
 IR Inten    --      0.0240                 0.0680                 3.0076
 Raman Activ --      0.1274                 8.5871                 0.5900

                     13                     14                     15
                      A                      A                      A
 Frequencies --    727.2226               765.0138               840.5516
 Red. masses --      2.6398                 5.4386                 4.9762
 Frc consts  --      0.8225                 1.8753                 2.0715
 IR Inten    --      2.0455                 1.4652                 0.2180
 Raman Activ --      0.0815                 2.5628                25.4275

                     16                     17                     18
                      A                      A                      A
 Frequencies --    860.9647               895.4369               951.0328
 Red. masses --      1.2337                 2.4145                 1.3718
 Frc consts  --      0.5388                 1.1406                 0.7310
 IR Inten    --     39.8214                 1.6040                65.1179
 Raman Activ --      6.9282                 9.1146                 0.6660

                     19                     20                     21
                      A                      A                      A
 Frequencies --    964.8709               999.2501              1056.0268
 Red. masses --      4.3412                 1.3794                 4.2208
 Frc consts  --      2.3812                 0.8115                 2.7733
 IR Inten    --      1.2180                18.2671                 0.9964
 Raman Activ --      1.2915                 1.4177                 0.2077

                     22                     23                     24
                      A                      A                      A
 Frequencies --   1057.8110              1093.2555              1127.7638
 Red. masses --      1.6522                 2.8877                 1.8246
 Frc consts  --      1.0892                 2.0335                 1.3673
 IR Inten    --      4.9666                 0.7126                 4.1678
 Raman Activ --      2.8199                11.9098                 1.8430

                     25                     26                     27
                      A                      A                      A
 Frequencies --   1137.2151              1159.3728              1179.6943
 Red. masses --      1.3548                 1.3989                 1.4312
 Frc consts  --      1.0323                 1.1078                 1.1735
 IR Inten    --      1.1223                 4.8618                 0.1303
 Raman Activ --      0.2381                 0.0500                 1.1326

                     28                     29                     30
                      A                      A                      A
 Frequencies --   1209.8419              1211.1197              1247.9057
 Red. masses --      1.5860                 2.5152                 2.1490
 Frc consts  --      1.3677                 2.1737                 1.9718
 IR Inten    --     10.1291                 0.6692                 0.8419
 Raman Activ --      1.0755                 4.5574                 0.4076

                     31                     32                     33
                      A                      A                      A
 Frequencies --   1294.2320              1308.9715              1330.1473
 Red. masses --      1.8218                 1.3017                 1.2702
 Frc consts  --      1.7979                 1.3141                 1.3241
 IR Inten    --      4.1196                 0.4950                 0.1520
 Raman Activ --      2.8803                12.8206                 0.6248

                     34                     35                     36
                      A                      A                      A
 Frequencies --   1405.3712              1411.2698              1464.7800
 Red. masses --      1.8338                 1.9880                 5.6113
 Frc consts  --      2.1339                 2.3328                 7.0935
 IR Inten    --      1.1761                 5.0182                 0.0236
 Raman Activ --      4.2381                 0.8226               205.7010

                     37                     38                     39
                      A                      A                      A
 Frequencies --   1496.4529              1530.5184              1578.1133
 Red. masses --      3.1374                 1.5705                 1.1991
 Frc consts  --      4.1395                 2.1675                 1.7595
 IR Inten    --      4.8860                 0.7701                 2.0272
 Raman Activ --     45.3275                 0.9311                25.7523

                     40                     41                     42
                      A                      A                      A
 Frequencies --   1601.2627              1640.2420              1654.5455
 Red. masses --      1.8274                 1.8826                 1.6515
 Frc consts  --      2.7606                 2.9842                 2.6637
 IR Inten    --      4.5290                 0.1396                 8.0034
 Raman Activ --      5.6504                23.7682                18.2067

                     43                     44                     45
                      A                      A                      A
 Frequencies --   1661.2102              1671.6731              1749.2856
 Red. masses --      1.0432                 1.3583                 5.4996
 Frc consts  --      1.6962                 2.2364                 9.9152
 IR Inten    --      7.2380                12.6641                 0.2252
 Raman Activ --     28.0515                15.2179                44.5851

                     46                     47                     48
                      A                      A                      A
 Frequencies --   1789.5155              1815.9204              3192.9088
 Red. masses --      4.4098                 5.2970                 1.0354
 Frc consts  --      8.3204                10.2914                 6.2191
 IR Inten    --     12.0324                 8.7903                29.4029
 Raman Activ --      1.0718                 9.5823               179.8256

                     49                     50                     51
                      A                      A                      A
 Frequencies --   3239.6516              3267.9465              3340.4653
 Red. masses --      1.1003                 1.0992                 1.0868
 Frc consts  --      6.8042                 6.9162                 7.1449
 IR Inten    --     22.2051                16.2364                 3.2090
 Raman Activ --    113.3661                60.3216                39.8722

                     52                     53                     54
                      A                      A                      A
 Frequencies --   3342.9871              3345.8452              3350.2468
 Red. masses --      1.0891                 1.0882                 1.0887
 Frc consts  --      7.1712                 7.1771                 7.1999
 IR Inten    --      2.3541                10.2448                 2.0654
 Raman Activ --     12.8220                14.4341               141.1700

                     55                     56                     57
                      A                      A                      A
 Frequencies --   3363.3717              3365.8460              3381.4912
 Red. masses --      1.0964                 1.0947                 1.0982
 Frc consts  --      7.3078                 7.3069                 7.3984
 IR Inten    --     12.9769                38.1537                23.5858
 Raman Activ --    164.7551                51.2805               266.2413

 - Thermochemistry -
 -------------------
 Temperature   298.150 Kelvin.  Pressure   1.00000 Atm.
 Atom     1 has atomic number  6 and mass  12.00000

 Molecular mass:   142.07825 amu.
 Principal axes and moments of inertia in atomic units:
                           1         2         3
     Eigenvalues --   633.570062171.554422794.02555
           X            0.99997  -0.00830   0.00000
           Y            0.00830   0.99997  -0.00000
           Z           -0.00000   0.00000   1.00000
 This molecule is an asymmetric top.
 Rotational symmetry number  1.
 Warning -- assumption of classical behavior for rotation
           may cause significant error
 Rotational temperatures (Kelvin)      0.13671     0.03989     0.03100
 Rotational constants (GHZ):           2.84853     0.83108     0.64593
 Zero-point vibrational energy     496027.4 (Joules/Mol)
                                  118.55339 (Kcal/Mol)
 Warning -- explicit consideration of  11 degrees of freedom as
           vibrations may cause significant error
 Vibrational temperatures:    157.64   194.15   292.17   408.40   448.84
          (Kelvin)            646.26   651.36   707.12   785.78   832.80
                              838.48  1016.05  1046.31  1100.68  1209.37
                             1238.74  1288.33  1368.32  1388.23  1437.70
                             1519.39  1521.95  1572.95  1622.60  1636.20
                             1668.08  1697.32  1740.69  1742.53  1795.46
                             1862.11  1883.32  1913.79  2022.02  2030.50
                             2107.49  2153.06  2202.07  2270.55  2303.86
                             2359.94  2380.52  2390.11  2405.16  2516.83
                             2574.71  2612.70  4593.88  4661.14  4701.85
                             4806.18  4809.81  4813.93  4820.26  4839.14
                             4842.70  4865.21

 Zero-point correction=                           0.188927 (Hartree/Particle)
 Thermal correction to Energy=                    0.196744
 Thermal correction to Enthalpy=                  0.197688
 Thermal correction to Gibbs Free Energy=         0.156000
 Sum of electronic and zero-point Energies=           -419.848340
 Sum of electronic and thermal Energies=              -419.840523
 Sum of electronic and thermal Enthalpies=            -419.839579
 Sum of electronic and thermal Free Energies=         -419.881266

                     E (Thermal)             CV                S
                      KCal/Mol        Cal/Mol-Kelvin    Cal/Mol-Kelvin
 Total                  123.458             31.153             87.738
 Electronic               0.000              0.000              0.000
 Translational            0.889              2.981             40.765
 Rotational               0.889              2.981             29.732
 Vibrational            121.681             25.191             17.242
 Vibration     1          0.606              1.942              3.277
 Vibration     2          0.613              1.918              2.874
 Vibration     3          0.639              1.836              2.105
 Vibration     4          0.682              1.704              1.510
 Vibration     5          0.700              1.651              1.352
 Vibration     6          0.808              1.363              0.798
 Vibration     7          0.811              1.355              0.788
 Vibration     8          0.847              1.269              0.680
 Vibration     9          0.901              1.148              0.552
 Vibration    10          0.935              1.077              0.488
 Vibration    11          0.940              1.069              0.480

 Optimization completed.
    -- Stationary point found.
 Normal termination of Gaussian 16 at Tue Jun 10 01:16:23 2025.
