 Gaussian 16, Revision B.01,
 Gaussian 16:  EM64L-G16RevB.01 20-Dec-2017

 ---------------------------------
 # opt hf/3-21+g geom=connectivity
 ---------------------------------

 ------------------------------
 Methyl_Napthalene Optimisation
 ------------------------------
 Symbolic Z-matrix:
 Charge =  0 Multiplicity = 1

 SCF Done:  E(RHF) =  -420.066175307     A.U. after   25 cycles
 SCF Done:  E(RHF) =  -420.074152730     A.U. after   26 cycles
 SCF Done:  E(RHF) =  -420.074635227     A.U. after   27 cycles
 SCF Done:  E(RHF) =  -420.074898416     A.U. after   26 cycles
 SCF Done:  E(RHF) =  -420.074963755     A.U. after   23 cycles
 SCF Done:  E(RHF) =  -420.075145362     A.U. after   24 cycles
 SCF Done:  E(RHF) =  -420.075195031     A.U. after   21 cycles
 SCF Done:  E(RHF) =  -420.075198653     A.U. after   26 cycles
 SCF Done:  E(RHF) =  -420.075198813     A.U. after   23 cycles
 Optimization completed.
    -- Stationary point found.

                         Standard orientation:
 ---------------------------------------------------------------------
 Center     Atomic      Atomic             Coordinates (Angstroms)
 Number     Number       Type             X           Y           Z
 ---------------------------------------------------------------------
      1          6           0       -2.687173   -1.046376   -0.000039
      2          6           0       -1.406109   -1.507087    0.000053
      3          6           0       -0.310569   -0.604848   -0.000008
      4          6           0       -0.568728    0.779596   -0.000010
      5          6           0       -1.912962    1.232734   -0.000026
      6          6           0       -2.945286    0.345102    0.000004
      7          1           0        1.218501   -2.118532    0.000031
      8          1           0       -3.509829   -1.735375   -0.000016
      9          1           0       -1.206863   -2.562553    0.000108
     10          6           0        1.037247   -1.059022    0.000018
     11          6           0        0.534023    1.676155   -0.000022
     12          1           0       -2.102774    2.290015   -0.000056
     13          1           0       -3.960024    0.693879   -0.000041
     14          6           0        1.809141    1.209671    0.000099
     15          6           0        2.080894   -0.186742    0.000027
     16          1           0        0.341792    2.733158   -0.000008
     17          1           0        2.634257    1.897708    0.000063
     18          6           0        3.521580   -0.654374   -0.000061
     19          1           0        4.045080   -0.285719   -0.876751
     20          1           0        4.045197   -0.285677    0.876519
     21          1           0        3.582317   -1.735756   -0.000059
 ---------------------------------------------------------------------

 The electronic state is 1-A.
 Alpha  occ. eigenvalues --  -11.19660 -11.19621 -11.19442 -11.18833 -11.18736
 Alpha  occ. eigenvalues --  -11.18607 -11.18589 -11.18465 -11.18373 -11.18161
 Alpha  occ. eigenvalues --  -11.17065  -1.19141  -1.13044  -1.06263  -1.03697
 Alpha  occ. eigenvalues --   -0.99992  -0.94584  -0.85747  -0.82965  -0.82423
 Alpha  occ. eigenvalues --   -0.71546  -0.70568  -0.67884  -0.63060  -0.62415
 Alpha  occ. eigenvalues --   -0.60162  -0.59235  -0.58556  -0.56274  -0.54683
 Alpha  occ. eigenvalues --   -0.53651  -0.51916  -0.48858  -0.47781  -0.44789
 Alpha  occ. eigenvalues --   -0.39078  -0.32249  -0.29510
 Alpha virt. eigenvalues --    0.07254   0.07415   0.07820   0.08405   0.08947
 Alpha virt. eigenvalues --    0.09599   0.10086   0.10877   0.10974   0.11532
 Alpha virt. eigenvalues --    0.12559   0.14085   0.14288   0.14754   0.15325

 Mulliken charges:
               1
     1  C   -1.092883
     2  C    0.160763
     3  C   -1.107541
     4  C    0.047615
     5  C    0.658312
     6  C   -0.905042
     7  H    0.277318
     8  H    0.279289
     9  H    0.284699
    10  C   -0.244400
    11  C    0.902632
    12  H    0.283935
    13  H    0.278733
    14  C   -1.676142
    15  C    1.116242
    16  H    0.282189
    17  H    0.283496
    18  C   -0.628727
    19  H    0.270787
    20  H    0.270775
    21  H    0.257951
 Sum of Mulliken charges =   0.00000

 Dipole moment (field-independent basis, Debye):
    X=              0.5116    Y=              0.0049    Z=             -0.0001  Tot=              0.5116
 Quadrupole moment (field-independent basis, Debye-Ang):
   XX=            -58.2036   YY=            -59.4643   ZZ=            -74.6273
   XY=             -0.1251   XZ=             -0.0001   YZ=             -0.0004

 Normal termination of Gaussian 16 at Mon Jun  9 19:28:34 2025.
