 Gaussian 16, Revision B.01,
 Gaussian 16:  EM64L-G16RevB.01 20-Dec-2017

 ----------------------------------------------
 # opt freq hf/3-21g pop=full geom=connectivity
 ----------------------------------------------

 ------------
 optimisation
 ------------
 Symbolic Z-matrix:
 Charge =  0 Multiplicity = 1

 SCF Done:  E(RHF) =  -268.240038545     A.U. after   12 cycles
 SCF Done:  E(RHF) =  -268.240209324     A.U. after   11 cycles
 SCF Done:  E(RHF) =  -268.240213048     A.U. after   10 cycles
 SCF Done:  E(RHF) =  -268.240213429     A.U. after    9 cycles
 SCF Done:  E(RHF) =  -268.240213555     A.U. after    8 cycles
 SCF Done:  E(RHF) =  -268.240213609     A.U. after    8 cycles
 SCF Done:  E(RHF) =  -268.240213695     A.U. after    8 cycles
 SCF Done:  E(RHF) =  -268.240213883     A.U. after    8 cycles
 SCF Done:  E(RHF) =  -268.240214290     A.U. after    9 cycles
 SCF Done:  E(RHF) =  -268.240215129     A.U. after   11 cycles
 SCF Done:  E(RHF) =  -268.240216297     A.U. after   11 cycles
 SCF Done:  E(RHF) =  -268.240217358     A.U. after   10 cycles
 SCF Done:  E(RHF) =  -268.240220947     A.U. after   11 cycles
 SCF Done:  E(RHF) =  -268.240221990     A.U. after   11 cycles
 SCF Done:  E(RHF) =  -268.240222713     A.U. after    9 cycles
 SCF Done:  E(RHF) =  -268.240223261     A.U. after   10 cycles
 SCF Done:  E(RHF) =  -268.240223288     A.U. after    8 cycles
 Optimization completed.
    -- Stationary point found.
 Normal termination of Gaussian 16 at Thu Jun 12 20:29:37 2025.

 --------------------------------------------------------------
 #N Geom=AllCheck Guess=TCheck SCRF=Check GenChk RHF/3-21G Freq
 --------------------------------------------------------------

 Structure from the checkpoint file:  "toluene.chk"
 ------------
 optimisation
 ------------
 Charge =  0 Multiplicity = 1

                         Standard orientation:
 ---------------------------------------------------------------------
 Center     Atomic      Atomic             Coordinates (Angstroms)
 Number     Number       Type             X           Y           Z
 ---------------------------------------------------------------------
      1          6           0       -1.889630   -0.005847    0.000015
      2          6           0       -1.185427   -1.199179   -0.000012
      3          6           0        0.196341   -1.190107    0.000001
      4          6           0        0.899764    0.008617    0.000018
      5          6           0        0.186508    1.196669   -0.000005
      6          6           0       -1.199280    1.191245   -0.000006
      7          1           0       -2.961507   -0.011904    0.000005
      8          1           0       -1.712753   -2.132877   -0.000017
      9          1           0        0.735290   -2.118465   -0.000001
     10          1           0        0.713876    2.130913   -0.000008
     11          1           0       -1.734751    2.120272   -0.000012
     12          6           0        2.417189    0.001837   -0.000002
     13          1           0        2.798114   -0.509326    0.877923
     14          1           0        2.798103   -0.508622   -0.878345
     15          1           0        2.810833    1.010596    0.000398
 ---------------------------------------------------------------------

 SCF Done:  E(RHF) =  -268.240223288     A.U. after    1 cycles

 The electronic state is 1-A.
 Alpha  occ. eigenvalues --  -11.18450 -11.17315 -11.17278 -11.16988 -11.16951
 Alpha  occ. eigenvalues --  -11.16925 -11.16256  -1.15881  -1.04511  -1.01359
 Alpha  occ. eigenvalues --   -0.93573  -0.82732  -0.80037  -0.70219  -0.63896
 Alpha  occ. eigenvalues --   -0.62771  -0.58877  -0.57831  -0.56913  -0.53985
 Alpha  occ. eigenvalues --   -0.49373  -0.48356  -0.48170  -0.33689  -0.32629
 Alpha virt. eigenvalues --    0.15044   0.15656   0.26223   0.29910   0.31408
 Alpha virt. eigenvalues --    0.33810   0.34140   0.35665   0.37926   0.38470
 Alpha virt. eigenvalues --    0.40818   0.44137   0.51638   0.53297   0.53815

 Mulliken charges:
               1
     1  C   -0.248149
     2  C   -0.230081
     3  C   -0.231333
     4  C   -0.070477
     5  C   -0.233937
     6  C   -0.230095
     7  H    0.236942
     8  H    0.237575
     9  H    0.233213
    10  H    0.232791
    11  H    0.237651
    12  C   -0.586915
    13  H    0.220628
    14  H    0.220638
    15  H    0.211548
 Sum of Mulliken charges =  -0.00000

 Dipole moment (field-independent basis, Debye):
    X=              0.3267    Y=             -0.0399    Z=             -0.0001  Tot=              0.3291
 Quadrupole moment (field-independent basis, Debye-Ang):
   XX=            -37.8695   YY=            -38.2890   ZZ=            -47.4461
   XY=             -0.0616   XZ=             -0.0000   YZ=             -0.0000

  Exact polarizability:  81.290  -0.510  71.822  -0.000  -0.000  23.948
 Approx polarizability:  73.570  -0.552  71.938  -0.000  -0.000  22.376

                      1                      2                      3
                      A                      A                      A
 Frequencies --     23.6752               235.7447               371.0944
 Red. masses --      1.0459                 2.9035                 2.5657
 Frc consts  --      0.0003                 0.0951                 0.2082
 IR Inten    --      0.1810                 3.1320                 0.5767
 Raman Activ --      0.4088                 4.6274                 0.1888

                      4                      5                      6
                      A                      A                      A
 Frequencies --    468.3993               534.7581               578.2796
 Red. masses --      2.7618                 2.6446                 4.9430
 Frc consts  --      0.3570                 0.4456                 0.9739
 IR Inten    --      0.0092                12.6592                 0.6452
 Raman Activ --      0.0229                 0.2622                 7.5420

                      7                      8                      9
                      A                      A                      A
 Frequencies --    713.6229               807.7119               852.5534
 Red. masses --      6.4404                 1.8386                 4.9534
 Frc consts  --      1.9324                 0.7067                 2.1213
 IR Inten    --      0.1221                36.0804                 0.1908
 Raman Activ --      4.5375                 0.2840                15.1921

                     10                     11                     12
                      A                      A                      A
 Frequencies --    853.8529               989.2502              1058.7382
 Red. masses --      1.4153                 1.2486                 1.3110
 Frc consts  --      0.6080                 0.7199                 0.8658
 IR Inten    --     63.3179                 0.0052                 0.1799
 Raman Activ --      0.2198                 5.1181                 3.3768

                     13                     14                     15
                      A                      A                      A
 Frequencies --   1095.7577              1110.3334              1143.1694
 Red. masses --      1.9453                 2.9631                 2.8740
 Frc consts  --      1.3761                 2.1523                 2.2128
 IR Inten    --      0.9405                 0.0434                 1.8748
 Raman Activ --      7.0365                24.8694                 0.1369

                     16                     17                     18
                      A                      A                      A
 Frequencies --   1153.4863              1180.7017              1200.1348
 Red. masses --      1.4018                 1.3999                 1.8666
 Frc consts  --      1.0989                 1.1498                 1.5841
 IR Inten    --      0.0036                 0.6732                 4.5929
 Raman Activ --      0.0068                 0.3634                 0.5146

                     19                     20                     21
                      A                      A                      A
 Frequencies --   1210.8366              1261.4742              1309.3303
 Red. masses --      1.5906                 2.1953                 3.4793
 Frc consts  --      1.3740                 2.0582                 3.5143
 IR Inten    --      8.5368                 0.5268                 0.0398
 Raman Activ --      0.0276                 5.1034                 2.9287

                     22                     23                     24
                      A                      A                      A
 Frequencies --   1332.2227              1357.4230              1512.2032
 Red. masses --      1.2024                 1.3780                 1.3430
 Frc consts  --      1.2573                 1.4960                 1.8094
 IR Inten    --      0.5249                 0.2396                 0.1545
 Raman Activ --      6.5462                 0.8396                 0.9175

                     25                     26                     27
                      A                      A                      A
 Frequencies --   1577.3290              1618.5030              1664.1742
 Red. masses --      1.1958                 1.7406                 1.0434
 Frc consts  --      1.7529                 2.6865                 1.7025
 IR Inten    --      3.0546                 3.4570                 6.6596
 Raman Activ --     14.6435                 2.7604                25.4585

                     28                     29                     30
                      A                      A                      A
 Frequencies --   1667.1186              1672.2999              1755.2641
 Red. masses --      1.2104                 1.7273                 4.2600
 Frc consts  --      1.9821                 2.8461                 7.7329
 IR Inten    --     17.8712                15.7301                 1.0906
 Raman Activ --     11.3720                 3.4828                13.8185

                     31                     32                     33
                      A                      A                      A
 Frequencies --   1776.0538              3195.7090              3243.7096
 Red. masses --      4.6363                 1.0350                 1.1005
 Frc consts  --      8.6165                 6.2278                 6.8221
 IR Inten    --      5.9781                24.2310                22.2969
 Raman Activ --     18.3090               132.4884                87.8690

                     34                     35                     36
                      A                      A                      A
 Frequencies --   3266.6384              3341.1500              3345.8940
 Red. masses --      1.0995                 1.0873                 1.0875
 Frc consts  --      6.9130                 7.1511                 7.1729
 IR Inten    --     17.5095                 6.3626                 2.7695
 Raman Activ --     54.8828                33.9198                73.5080

                     37                     38                     39
                      A                      A                      A
 Frequencies --   3357.9220              3366.6755              3382.0683
 Red. masses --      1.0911                 1.0942                 1.0989
 Frc consts  --      7.2486                 7.3070                 7.4060
 IR Inten    --     10.0381                37.6983                13.7243
 Raman Activ --    103.0797                15.3770               234.4052

 - Thermochemistry -
 -------------------
 Temperature   298.150 Kelvin.  Pressure   1.00000 Atm.
 Atom     1 has atomic number  6 and mass  12.00000

 Molecular mass:    92.06260 amu.
 Principal axes and moments of inertia in atomic units:
                           1         2         3
     Eigenvalues --   320.63755 709.703891019.24037
           X            1.00000  -0.00032  -0.00000
           Y            0.00032   1.00000  -0.00000
           Z            0.00000   0.00000   1.00000
 This molecule is an asymmetric top.
 Rotational symmetry number  1.
 Rotational temperatures (Kelvin)      0.27013     0.12204     0.08498
 Rotational constants (GHZ):           5.62860     2.54295     1.77067
 Zero-point vibrational energy     362380.3 (Joules/Mol)
                                   86.61098 (Kcal/Mol)
 Warning -- explicit consideration of   6 degrees of freedom as
           vibrations may cause significant error
 Vibrational temperatures:     34.06   339.18   533.92   673.92   769.40
          (Kelvin)            832.02  1026.74  1162.12  1226.63  1228.50
                             1423.31  1523.29  1576.55  1597.52  1644.77
                             1659.61  1698.77  1726.73  1742.12  1814.98
                             1883.83  1916.77  1953.03  2175.72  2269.42
                             2328.66  2394.38  2398.61  2406.07  2525.43
                             2555.35  4597.91  4666.97  4699.96  4807.17
                             4814.00  4831.30  4843.90  4866.04

 Zero-point correction=                           0.138023 (Hartree/Particle)
 Thermal correction to Energy=                    0.143799
 Thermal correction to Enthalpy=                  0.144743
 Thermal correction to Gibbs Free Energy=         0.107238
 Sum of electronic and zero-point Energies=           -268.102200
 Sum of electronic and thermal Energies=              -268.096425
 Sum of electronic and thermal Enthalpies=            -268.095480
 Sum of electronic and thermal Free Energies=         -268.132985

                     E (Thermal)             CV                S
                      KCal/Mol        Cal/Mol-Kelvin    Cal/Mol-Kelvin
 Total                   90.235             20.702             78.935
 Electronic               0.000              0.000              0.000
 Translational            0.889              2.981             39.471
 Rotational               0.889              2.981             26.942
 Vibrational             88.458             14.740             12.522
 Vibration     1          0.593              1.985              6.299
 Vibration     2          0.655              1.786              1.835
 Vibration     3          0.743              1.532              1.075
 Vibration     4          0.826              1.320              0.742
 Vibration     5          0.890              1.173              0.577
 Vibration     6          0.935              1.078              0.489

 Optimization completed.
    -- Stationary point found.
 Normal termination of Gaussian 16 at Thu Jun 12 20:29:40 2025.
