 Gaussian 16, Revision B.01,
 Gaussian 16:  EM64L-G16RevB.01 20-Dec-2017

 -------------------------------------
 # hf/3-21g pop=full geom=connectivity
 -------------------------------------

 -------------------
 Title Card Required
 -------------------
 Symbolic Z-matrix:
 Charge =  0 Multiplicity = 1

                         Standard orientation:
 ---------------------------------------------------------------------
 Center     Atomic      Atomic             Coordinates (Angstroms)
 Number     Number       Type             X           Y           Z
 ---------------------------------------------------------------------
      1          5           0       -0.000000    0.000000    0.057558
      2          9           0        0.000000    1.330921   -0.010659
      3          9           0       -1.152612   -0.665461   -0.010659
      4          9           0        1.152612   -0.665461   -0.010659
 ---------------------------------------------------------------------

 SCF Done:  E(RHF) =  -321.464413975     A.U. after    9 cycles

 The electronic state is 1-A1.
 Alpha  occ. eigenvalues --  -26.21492 -26.21475 -26.21475  -7.78198  -1.67418
 Alpha  occ. eigenvalues --   -1.62790  -1.62790  -0.83129  -0.78550  -0.78550
 Alpha  occ. eigenvalues --   -0.74871  -0.67263  -0.67263  -0.66456  -0.66456
 Alpha  occ. eigenvalues --   -0.64665
 Alpha virt. eigenvalues --    0.16612   0.26822   0.41250   0.41250   0.55285
 Alpha virt. eigenvalues --    0.77286   0.77286   0.89259   2.16950   2.16950
 Alpha virt. eigenvalues --    2.28368   2.28368   2.29296   2.38149   2.42207

 Mulliken charges:
               1
     1  B    1.178061
     2  F   -0.392687
     3  F   -0.392687
     4  F   -0.392687
 Sum of Mulliken charges =  -0.00000

 Dipole moment (field-independent basis, Debye):
    X=              0.0000    Y=             -0.0000    Z=              0.4408  Tot=              0.4408
 Quadrupole moment (field-independent basis, Debye-Ang):
   XX=            -22.6943   YY=            -22.6943   ZZ=            -16.8799
   XY=             -0.0000   XZ=              0.0000   YZ=             -0.0000

 Normal termination of Gaussian 16 at Tue Jun 17 16:07:13 2025.
