 Gaussian 16, Revision B.01,
 Gaussian 16:  EM64L-G16RevB.01 20-Dec-2017

 -------------------------------------
 # hf/3-21g pop=full geom=connectivity
 -------------------------------------

 -------------------
 Title Card Required
 -------------------
 Symbolic Z-matrix:
 Charge =  0 Multiplicity = 1

                         Standard orientation:
 ---------------------------------------------------------------------
 Center     Atomic      Atomic             Coordinates (Angstroms)
 Number     Number       Type             X           Y           Z
 ---------------------------------------------------------------------
      1         15           0       -0.000000   -0.000000    0.116255
      2          1           0        0.000000    1.231700   -0.581277
      3          1           0        1.066683   -0.615850   -0.581277
      4          1           0       -1.066683   -0.615850   -0.581277
 ---------------------------------------------------------------------

 SCF Done:  E(RHF) =  -340.704252036     A.U. after    9 cycles

 The electronic state is 1-A1.
 Alpha  occ. eigenvalues --  -79.38405  -7.45931  -5.34373  -5.34373  -5.34076
 Alpha  occ. eigenvalues --   -0.87627  -0.53168  -0.53168  -0.37556
 Alpha virt. eigenvalues --    0.18474   0.18474   0.26249   0.60224   0.60224
 Alpha virt. eigenvalues --    0.63169   0.69469   1.20630   1.26498   1.26498

 Mulliken charges:
               1
     1  P    0.093022
     2  H   -0.031007
     3  H   -0.031007
     4  H   -0.031007
 Sum of Mulliken charges =   0.00000

 Dipole moment (field-independent basis, Debye):
    X=             -0.0000    Y=              0.0000    Z=             -1.2985  Tot=              1.2985
 Quadrupole moment (field-independent basis, Debye-Ang):
   XX=            -15.2585   YY=            -15.2585   ZZ=            -18.1602
   XY=              0.0000   XZ=              0.0000   YZ=              0.0000

 Normal termination of Gaussian 16 at Tue Jun 17 16:09:14 2025.
