 Gaussian 16, Revision B.01,
 Gaussian 16:  EM64L-G16RevB.01 20-Dec-2017

 -------------------------------------
 # hf/3-21g pop=full geom=connectivity
 -------------------------------------

 -------------------
 Title Card Required
 -------------------
 Symbolic Z-matrix:
 Charge =  0 Multiplicity = 1

                         Standard orientation:
 ---------------------------------------------------------------------
 Center     Atomic      Atomic             Coordinates (Angstroms)
 Number     Number       Type             X           Y           Z
 ---------------------------------------------------------------------
      1          5           0       -0.000000   -0.000000   -1.094582
      2          9           0        0.000000    1.330921   -1.162799
      3          9           0       -1.152612   -0.665461   -1.162799
      4          9           0        1.152612   -0.665461   -1.162799
      5         15           0       -0.000000   -0.000000    1.931994
      6          1           0        1.066683    0.615850    2.629526
      7          1           0       -1.066683    0.615849    2.629526
      8          1           0        0.000000   -1.231700    2.629526
 ---------------------------------------------------------------------

 SCF Done:  E(RHF) =  -662.179444955     A.U. after   10 cycles

 The electronic state is 1-A.
 Alpha  occ. eigenvalues --  -79.40562 -26.19138 -26.19108 -26.19108  -7.75917
 Alpha  occ. eigenvalues --   -7.48052  -5.36503  -5.36503  -5.36277  -1.65200
 Alpha  occ. eigenvalues --   -1.60593  -1.60593  -0.89536  -0.81039  -0.76427
 Alpha  occ. eigenvalues --   -0.76427  -0.72852  -0.65218  -0.65218  -0.64428
 Alpha  occ. eigenvalues --   -0.64428  -0.62499  -0.54800  -0.54800  -0.40794
 Alpha virt. eigenvalues --    0.16503   0.16503   0.21566   0.24946   0.30955
 Alpha virt. eigenvalues --    0.44028   0.44028   0.58952   0.60436   0.60436
 Alpha virt. eigenvalues --    0.66977   0.75846   0.80271   0.80271   1.01161

 Mulliken charges:
               1
     1  B    1.202186
     2  F   -0.402971
     3  F   -0.402971
     4  F   -0.402971
     5  P    0.023440
     6  H   -0.005570
     7  H   -0.005570
     8  H   -0.005570
 Sum of Mulliken charges =  -0.00000

 Dipole moment (field-independent basis, Debye):
    X=             -0.0000    Y=             -0.0000    Z=              2.2142  Tot=              2.2142
 Quadrupole moment (field-independent basis, Debye-Ang):
   XX=            -37.9423   YY=            -37.9423   ZZ=            -30.0614
   XY=              0.0000   XZ=             -0.0000   YZ=              0.0000

 Normal termination of Gaussian 16 at Tue Jun 17 16:01:51 2025.
