 Gaussian 16, Revision B.01,
 Gaussian 16:  EM64L-G16RevB.01 20-Dec-2017

 ----------------------------------------------
 # opt freq hf/3-21g pop=full geom=connectivity
 ----------------------------------------------

 -------------------
 Title Card Required
 -------------------
 Symbolic Z-matrix:
 Charge =  0 Multiplicity = 1

 SCF Done:  E(RHF) =  -662.128780269     A.U. after   11 cycles
 SCF Done:  E(RHF) =  -662.153566236     A.U. after   10 cycles
 SCF Done:  E(RHF) =  -662.163190241     A.U. after   10 cycles
 SCF Done:  E(RHF) =  -662.169253751     A.U. after   10 cycles
 SCF Done:  E(RHF) =  -662.175041837     A.U. after   11 cycles
 SCF Done:  E(RHF) =  -662.177566375     A.U. after    8 cycles
 SCF Done:  E(RHF) =  -662.179263927     A.U. after    9 cycles
 SCF Done:  E(RHF) =  -662.179439032     A.U. after    8 cycles
 SCF Done:  E(RHF) =  -662.179444393     A.U. after    7 cycles
 SCF Done:  E(RHF) =  -662.179444955     A.U. after    7 cycles
 Optimization completed.
    -- Stationary point found.
 Normal termination of Gaussian 16 at Tue Jun 17 16:01:09 2025.

 --------------------------------------------------------------
 #N Geom=AllCheck Guess=TCheck SCRF=Check GenChk RHF/3-21G Freq
 --------------------------------------------------------------

 Structure from the checkpoint file:  "PH3_BF3_adduct_opt.chk"
 -------------------
 Title Card Required
 -------------------
 Charge =  0 Multiplicity = 1

                         Standard orientation:
 ---------------------------------------------------------------------
 Center     Atomic      Atomic             Coordinates (Angstroms)
 Number     Number       Type             X           Y           Z
 ---------------------------------------------------------------------
      1          5           0        0.000000   -0.000000   -1.094582
      2          9           0       -0.000000    1.330921   -1.162799
      3          9           0       -1.152612   -0.665461   -1.162799
      4          9           0        1.152612   -0.665461   -1.162799
      5         15           0       -0.000000    0.000000    1.931994
      6          1           0        1.066683    0.615850    2.629526
      7          1           0       -1.066683    0.615850    2.629526
      8          1           0       -0.000000   -1.231699    2.629526
 ---------------------------------------------------------------------

 SCF Done:  E(RHF) =  -662.179444955     A.U. after    1 cycles

 The electronic state is 1-A1.
 Alpha  occ. eigenvalues --  -79.40562 -26.19138 -26.19108 -26.19108  -7.75917
 Alpha  occ. eigenvalues --   -7.48052  -5.36503  -5.36503  -5.36277  -1.65200
 Alpha  occ. eigenvalues --   -1.60593  -1.60593  -0.89536  -0.81039  -0.76427
 Alpha  occ. eigenvalues --   -0.76427  -0.72852  -0.65218  -0.65218  -0.64428
 Alpha  occ. eigenvalues --   -0.64428  -0.62499  -0.54800  -0.54800  -0.40794
 Alpha virt. eigenvalues --    0.16503   0.16503   0.21566   0.24946   0.30955
 Alpha virt. eigenvalues --    0.44028   0.44028   0.58952   0.60436   0.60436
 Alpha virt. eigenvalues --    0.66977   0.75846   0.80271   0.80271   1.01161

 Mulliken charges:
               1
     1  B    1.202186
     2  F   -0.402971
     3  F   -0.402971
     4  F   -0.402971
     5  P    0.023439
     6  H   -0.005570
     7  H   -0.005570
     8  H   -0.005570
 Sum of Mulliken charges =  -0.00000

 Dipole moment (field-independent basis, Debye):
    X=             -0.0000    Y=             -0.0000    Z=              2.2142  Tot=              2.2142
 Quadrupole moment (field-independent basis, Debye-Ang):
   XX=            -37.9423   YY=            -37.9423   ZZ=            -30.0614
   XY=              0.0000   XZ=             -0.0000   YZ=              0.0000

  Exact polarizability:  29.484  -0.000  29.484  -0.000   0.000  25.922
 Approx polarizability:  25.563   0.000  25.563  -0.000  -0.000  19.232

                      1                      2                      3
                      E                      E                     A2
 Frequencies --     42.0997                42.0997                52.1573
 Red. masses --      3.5787                 3.5787                 1.0511
 Frc consts  --      0.0037                 0.0037                 0.0017
 IR Inten    --      2.7624                 2.7624                 0.0000
 Raman Activ --      0.2267                 0.2267                 0.0000

                      4                      5                      6
                     A1                      E                      E
 Frequencies --    100.6148               240.5077               240.5077
 Red. masses --      9.4324                 1.4366                 1.4366
 Frc consts  --      0.0563                 0.0490                 0.0490
 IR Inten    --      2.2230                 3.7388                 3.7388
 Raman Activ --      0.3742                 5.2564                 5.2564

                      7                      8                      9
                      E                      E                     A1
 Frequencies --    495.6356               495.6356               630.9024
 Red. masses --     16.3346                16.3346                11.4882
 Frc consts  --      2.3642                 2.3642                 2.6942
 IR Inten    --     20.3985                20.3985               387.3401
 Raman Activ --      0.7230                 0.7230                 8.3039

                     10                     11                     12
                     A1                     A1                      E
 Frequencies --    938.7923              1066.8485              1252.4937
 Red. masses --     17.5221                 1.0996                 1.0283
 Frc consts  --      9.0986                 0.7374                 0.9504
 IR Inten    --     12.6363                14.7135                15.6472
 Raman Activ --      3.0583                25.6615                70.5336

                     13                     14                     15
                      E                      E                      E
 Frequencies --   1252.4937              1639.3189              1639.3189
 Red. masses --      1.0283                12.2351                12.2351
 Frc consts  --      0.9504                19.3724                19.3724
 IR Inten    --     15.6472               340.4083               340.4083
 Raman Activ --     70.5336                 0.1568                 0.1568

                     16                     17                     18
                      E                      E                     A1
 Frequencies --   2444.3898              2444.3898              2452.1975
 Red. masses --      1.0420                 1.0420                 1.0258
 Frc consts  --      3.6682                 3.6682                 3.6342
 IR Inten    --     65.6478                65.6478                21.3237
 Raman Activ --    145.1447               145.1447               226.0004

 - Thermochemistry -
 -------------------
 Temperature   298.150 Kelvin.  Pressure   1.00000 Atm.
 Atom     1 has atomic number  5 and mass  11.00931

 Molecular mass:   102.00175 amu.
 Principal axes and moments of inertia in atomic units:
                           1         2         3
     Eigenvalues --   376.90945 994.38739 994.38739
           X            0.00000   0.36667   0.93035
           Y            0.00000   0.93035  -0.36667
           Z            1.00000  -0.00000  -0.00000
 This molecule is a prolate symmetric top.
 Rotational symmetry number  3.
 Rotational temperatures (Kelvin)      0.22980     0.08710     0.08710
 Rotational constants (GHZ):           4.78826     1.81493     1.81493
 Zero-point vibrational energy     104496.2 (Joules/Mol)
                                   24.97520 (Kcal/Mol)
 Warning -- explicit consideration of   8 degrees of freedom as
           vibrations may cause significant error
 Vibrational temperatures:     60.57    60.57    75.04   144.76   346.04
          (Kelvin)            346.04   713.11   713.11   907.73  1350.71
                             1534.96  1802.06  1802.06  2358.61  2358.61
                             3516.93  3516.93  3528.17

 Zero-point correction=                           0.039801 (Hartree/Particle)
 Thermal correction to Energy=                    0.047606
 Thermal correction to Enthalpy=                  0.048550
 Thermal correction to Gibbs Free Energy=         0.006213
 Sum of electronic and zero-point Energies=           -662.139644
 Sum of electronic and thermal Energies=              -662.131839
 Sum of electronic and thermal Enthalpies=            -662.130895
 Sum of electronic and thermal Free Energies=         -662.173232

                     E (Thermal)             CV                S
                      KCal/Mol        Cal/Mol-Kelvin    Cal/Mol-Kelvin
 Total                   29.873             22.093             89.106
 Electronic               0.000              0.000              0.000
 Translational            0.889              2.981             39.777
 Rotational               0.889              2.981             25.230
 Vibrational             28.096             16.132             24.099
 Vibration     1          0.595              1.980              5.158
 Vibration     2          0.595              1.980              5.158
 Vibration     3          0.596              1.977              4.734
 Vibration     4          0.604              1.949              3.442
 Vibration     5          0.658              1.778              1.799
 Vibration     6          0.658              1.778              1.799
 Vibration     7          0.851              1.260              0.669
 Vibration     8          0.851              1.260              0.669

 Optimization completed.
    -- Stationary point found.
 Normal termination of Gaussian 16 at Tue Jun 17 16:01:10 2025.
