 Gaussian 16, Revision B.01,
 Gaussian 16:  EM64L-G16RevB.01 20-Dec-2017

 -------------------------------------
 # hf/3-21g pop=full geom=connectivity
 -------------------------------------

 -------------------
 Title Card Required
 -------------------
 Symbolic Z-matrix:
 Charge =  0 Multiplicity = 1

                         Standard orientation:
 ---------------------------------------------------------------------
 Center     Atomic      Atomic             Coordinates (Angstroms)
 Number     Number       Type             X           Y           Z
 ---------------------------------------------------------------------
      1          5           0        0.008986   -0.000125    0.521242
      2         17           0       -0.919437   -1.547636   -0.050824
      3         17           0       -0.884909    1.567550   -0.050821
      4         17           0        1.801703   -0.019878   -0.051662
 ---------------------------------------------------------------------

 SCF Done:  E(RHF) =  -1396.48050875     A.U. after   11 cycles

 The electronic state is 1-A.
 Alpha  occ. eigenvalues -- -104.15001-104.14812-104.14791 -10.54382 -10.54188
 Alpha  occ. eigenvalues --  -10.54119  -8.00675  -8.00464  -8.00450  -8.00314
 Alpha  occ. eigenvalues --   -8.00279  -8.00103  -8.00096  -8.00071  -8.00056
 Alpha  occ. eigenvalues --   -7.81975  -1.17897  -1.12355  -1.12110  -0.70655
 Alpha  occ. eigenvalues --   -0.59399  -0.59302  -0.55326  -0.50153  -0.50039
 Alpha  occ. eigenvalues --   -0.48307  -0.48189  -0.47366
 Alpha virt. eigenvalues --   -0.03863   0.16639   0.17800   0.18147   0.56328
 Alpha virt. eigenvalues --    0.56417   0.57133   0.64149   0.73126   0.73210
 Alpha virt. eigenvalues --    0.74874   0.74878   0.75556   0.81058   0.84313

 Mulliken charges:
               1
     1  B    0.317839
     2  Cl  -0.107778
     3  Cl  -0.107768
     4  Cl  -0.102292
 Sum of Mulliken charges =   0.00000

 Dipole moment (field-independent basis, Debye):
    X=              0.0784    Y=             -0.0009    Z=              1.8201  Tot=              1.8218
 Quadrupole moment (field-independent basis, Debye-Ang):
   XX=            -48.9468   YY=            -49.0375   ZZ=            -42.4098
   XY=             -0.0010   XZ=              0.0315   YZ=             -0.0004

 Normal termination of Gaussian 16 at Mon Jun 16 22:32:06 2025.
