 Gaussian 16, Revision B.01,
 Gaussian 16:  EM64L-G16RevB.01 20-Dec-2017

 -------------------------------------
 # hf/3-21g pop=full geom=connectivity
 -------------------------------------

 -------------------
 Title Card Required
 -------------------
 Symbolic Z-matrix:
 Charge =  0 Multiplicity = 1

                         Standard orientation:
 ---------------------------------------------------------------------
 Center     Atomic      Atomic             Coordinates (Angstroms)
 Number     Number       Type             X           Y           Z
 ---------------------------------------------------------------------
      1          6           0       -1.313242    1.218621    0.000022
      2          6           0       -2.688836    1.222578    0.000004
      3          6           0       -3.363553    0.017177   -0.000098
      4          6           0       -2.641668   -1.167049   -0.000160
      5          6           0       -1.273541   -1.109397   -0.000154
      6          7           0       -0.622880    0.070782   -0.000102
      7          1           0       -4.434185   -0.003786   -0.000171
      8          1           0       -0.743493    2.118390    0.000121
      9          1           0       -3.210584    2.155079    0.000078
     10          1           0       -3.129369   -2.117761   -0.000227
     11          1           0       -0.666236   -1.986403   -0.000119
     12          5           0        0.985040    0.017294    0.000006
     13         17           0        1.485989   -0.934188    1.558130
     14         17           0        1.486354   -0.935365   -1.557247
     15         17           0        1.692590    1.761374   -0.000687
 ---------------------------------------------------------------------

 SCF Done:  E(RHF) =  -1641.91951198     A.U. after   13 cycles

 The electronic state is 1-A.
 Alpha  occ. eigenvalues -- -104.07705-104.06681-104.06662 -15.63416 -11.30882
 Alpha  occ. eigenvalues --  -11.30832 -11.27894 -11.25360 -11.25344 -10.47133
 Alpha  occ. eigenvalues --  -10.46180 -10.46119  -7.93443  -7.93114  -7.93080
 Alpha  occ. eigenvalues --   -7.92483  -7.92471  -7.92139  -7.92138  -7.92130
 Alpha  occ. eigenvalues --   -7.92114  -7.71855  -1.38659  -1.18278  -1.12748
 Alpha  occ. eigenvalues --   -1.11067  -1.06062  -1.05312  -0.95112  -0.94765
 Alpha  occ. eigenvalues --   -0.83736  -0.75692  -0.74076  -0.71587  -0.68948
 Alpha  occ. eigenvalues --   -0.65714  -0.62277  -0.59646  -0.56745  -0.53204
 Alpha  occ. eigenvalues --   -0.52878  -0.47613  -0.45406  -0.44244  -0.44049
 Alpha  occ. eigenvalues --   -0.42313  -0.42068  -0.41521  -0.40868
 Alpha virt. eigenvalues --    0.02700   0.07631   0.20862   0.23275   0.24281
 Alpha virt. eigenvalues --    0.25397   0.27446   0.28699   0.29963   0.31728
 Alpha virt. eigenvalues --    0.31872   0.33811   0.41655   0.42622   0.45777

 Mulliken charges:
               1
     1  C    0.250506
     2  C   -0.354638
     3  C   -0.130996
     4  C   -0.355714
     5  C    0.271881
     6  N   -0.939536
     7  H    0.297641
     8  H    0.365143
     9  H    0.292329
    10  H    0.293972
    11  H    0.355616
    12  B    0.347794
    13  Cl  -0.217465
    14  Cl  -0.217482
    15  Cl  -0.259051
 Sum of Mulliken charges =  -0.00000

 Dipole moment (field-independent basis, Debye):
    X=            -11.1116    Y=              0.4042    Z=             -0.0006  Tot=             11.1190
 Quadrupole moment (field-independent basis, Debye-Ang):
   XX=            -71.3193   YY=            -77.1254   ZZ=            -91.6281
   XY=             -0.2878   XZ=              0.0011   YZ=              0.0012

 Normal termination of Gaussian 16 at Mon Jun 16 22:25:32 2025.
