 Gaussian 16, Revision B.01,
 Gaussian 16:  EM64L-G16RevB.01 20-Dec-2017

 ----------------------------------------------
 # opt freq hf/3-21g pop=full geom=connectivity
 ----------------------------------------------

 -------------------
 Title Card Required
 -------------------
 Symbolic Z-matrix:
 Charge =  0 Multiplicity = 1

 SCF Done:  E(RHF) =  -1641.84802998     A.U. after   14 cycles
 SCF Done:  E(RHF) =  -1641.89301608     A.U. after   14 cycles
 SCF Done:  E(RHF) =  -1641.91332568     A.U. after   14 cycles
 SCF Done:  E(RHF) =  -1641.91762299     A.U. after   14 cycles
 SCF Done:  E(RHF) =  -1641.91893387     A.U. after   12 cycles
 SCF Done:  E(RHF) =  -1641.91910562     A.U. after   12 cycles
 SCF Done:  E(RHF) =  -1641.91923767     A.U. after   11 cycles
 SCF Done:  E(RHF) =  -1641.91931388     A.U. after   12 cycles
 SCF Done:  E(RHF) =  -1641.91914568     A.U. after   14 cycles
 SCF Done:  E(RHF) =  -1641.91944289     A.U. after   12 cycles
 SCF Done:  E(RHF) =  -1641.91947160     A.U. after   13 cycles
 SCF Done:  E(RHF) =  -1641.91950723     A.U. after   11 cycles
 SCF Done:  E(RHF) =  -1641.91951105     A.U. after    9 cycles
 SCF Done:  E(RHF) =  -1641.91951189     A.U. after    8 cycles
 SCF Done:  E(RHF) =  -1641.91951198     A.U. after    8 cycles
 Optimization completed.
    -- Stationary point found.
 Normal termination of Gaussian 16 at Mon Jun 16 22:24:02 2025.

 --------------------------------------------------------------
 #N Geom=AllCheck Guess=TCheck SCRF=Check GenChk RHF/3-21G Freq
 --------------------------------------------------------------

 Structure from the checkpoint file:  "py_BCl3_adduct_opt.chk"
 -------------------
 Title Card Required
 -------------------
 Charge =  0 Multiplicity = 1

                         Standard orientation:
 ---------------------------------------------------------------------
 Center     Atomic      Atomic             Coordinates (Angstroms)
 Number     Number       Type             X           Y           Z
 ---------------------------------------------------------------------
      1          6           0       -1.313242    1.218621    0.000022
      2          6           0       -2.688836    1.222578    0.000004
      3          6           0       -3.363553    0.017177   -0.000098
      4          6           0       -2.641668   -1.167049   -0.000160
      5          6           0       -1.273541   -1.109397   -0.000154
      6          7           0       -0.622880    0.070782   -0.000102
      7          1           0       -4.434185   -0.003786   -0.000171
      8          1           0       -0.743493    2.118390    0.000121
      9          1           0       -3.210584    2.155079    0.000078
     10          1           0       -3.129369   -2.117761   -0.000227
     11          1           0       -0.666236   -1.986403   -0.000119
     12          5           0        0.985040    0.017294    0.000006
     13         17           0        1.485989   -0.934188    1.558130
     14         17           0        1.486354   -0.935365   -1.557247
     15         17           0        1.692590    1.761374   -0.000687
 ---------------------------------------------------------------------

 SCF Done:  E(RHF) =  -1641.91951198     A.U. after    1 cycles

 The electronic state is 1-A.
 Alpha  occ. eigenvalues -- -104.07705-104.06681-104.06662 -15.63416 -11.30882
 Alpha  occ. eigenvalues --  -11.30832 -11.27894 -11.25360 -11.25344 -10.47133
 Alpha  occ. eigenvalues --  -10.46180 -10.46119  -7.93443  -7.93114  -7.93080
 Alpha  occ. eigenvalues --   -7.92483  -7.92471  -7.92139  -7.92138  -7.92130
 Alpha  occ. eigenvalues --   -7.92114  -7.71855  -1.38659  -1.18278  -1.12748
 Alpha  occ. eigenvalues --   -1.11067  -1.06062  -1.05312  -0.95112  -0.94765
 Alpha  occ. eigenvalues --   -0.83736  -0.75692  -0.74076  -0.71587  -0.68948
 Alpha  occ. eigenvalues --   -0.65714  -0.62277  -0.59646  -0.56745  -0.53204
 Alpha  occ. eigenvalues --   -0.52878  -0.47613  -0.45406  -0.44244  -0.44049
 Alpha  occ. eigenvalues --   -0.42313  -0.42068  -0.41521  -0.40868
 Alpha virt. eigenvalues --    0.02700   0.07631   0.20862   0.23275   0.24281
 Alpha virt. eigenvalues --    0.25397   0.27446   0.28699   0.29963   0.31728
 Alpha virt. eigenvalues --    0.31872   0.33811   0.41655   0.42622   0.45777

 Mulliken charges:
               1
     1  C    0.250506
     2  C   -0.354638
     3  C   -0.130996
     4  C   -0.355714
     5  C    0.271881
     6  N   -0.939535
     7  H    0.297641
     8  H    0.365143
     9  H    0.292329
    10  H    0.293972
    11  H    0.355616
    12  B    0.347794
    13  Cl  -0.217464
    14  Cl  -0.217483
    15  Cl  -0.259051
 Sum of Mulliken charges =  -0.00000

 Dipole moment (field-independent basis, Debye):
    X=            -11.1116    Y=              0.4042    Z=             -0.0006  Tot=             11.1190
 Quadrupole moment (field-independent basis, Debye-Ang):
   XX=            -71.3193   YY=            -77.1254   ZZ=            -91.6281
   XY=             -0.2878   XZ=              0.0011   YZ=              0.0012

  Exact polarizability:  93.670   0.422  91.380  -0.002   0.001  52.032
 Approx polarizability:  79.950   0.588  89.141  -0.003   0.002  46.143

                      1                      2                      3
                      A                      A                      A
 Frequencies --     26.9497               104.7782               169.7843
 Red. masses --      4.6464                 7.3813                13.3497
 Frc consts  --      0.0020                 0.0477                 0.2267
 IR Inten    --      0.0005                 0.0665                 1.3356
 Raman Activ --      6.6911                 7.8558                 2.2955

                      4                      5                      6
                      A                      A                      A
 Frequencies --    216.6468               223.2829               253.6558
 Red. masses --     14.6970                11.6576                11.7008
 Frc consts  --      0.4064                 0.3424                 0.4436
 IR Inten    --      0.9794                 4.0745                10.8759
 Raman Activ --      2.4928                 2.9147                 2.6893

                      7                      8                      9
                      A                      A                      A
 Frequencies --    302.9450               344.2975               374.8262
 Red. masses --      7.6716                 9.0789                23.5355
 Frc consts  --      0.4148                 0.6341                 1.9482
 IR Inten    --      0.5887                10.2303                 2.2933
 Raman Activ --      2.6803                 3.7439                 9.1162

                     10                     11                     12
                      A                      A                      A
 Frequencies --    458.0380               534.3413               653.9905
 Red. masses --      2.6186                 4.1403                 9.1661
 Frc consts  --      0.3237                 0.6965                 2.3098
 IR Inten    --      0.0209                11.4898               112.4601
 Raman Activ --      0.3811                 1.6779                 3.0978

                     13                     14                     15
                      A                      A                      A
 Frequencies --    716.3859               730.6495               776.2650
 Red. masses --      6.7918                 7.0451                 8.9526
 Frc consts  --      2.0536                 2.2159                 3.1785
 IR Inten    --    252.2665                57.5253               189.6748
 Raman Activ --      4.4821                 6.7528                 0.6570

                     16                     17                     18
                      A                      A                      A
 Frequencies --    805.3865               843.7331               919.9286
 Red. masses --      1.5748                 7.2419                 1.7495
 Frc consts  --      0.6019                 3.0375                 0.8723
 IR Inten    --    244.6386               170.9775                 0.3240
 Raman Activ --      1.2018                 2.4417                 0.9578

                     19                     20                     21
                      A                      A                      A
 Frequencies --   1025.2959              1112.5458              1160.3378
 Red. masses --      1.2465                 5.4173                 1.4216
 Frc consts  --      0.7721                 3.9506                 1.1277
 IR Inten    --      0.0807                26.1553                 0.3205
 Raman Activ --      1.8937                50.5289                 0.1816

                     22                     23                     24
                      A                      A                      A
 Frequencies --   1175.3240              1191.4201              1204.6676
 Red. masses --      2.3423                 2.7261                 1.4372
 Frc consts  --      1.9064                 2.2799                 1.2289
 IR Inten    --     32.5411                 5.8242                 0.2406
 Raman Activ --      1.0753                 2.4509                 0.0096

                     25                     26                     27
                      A                      A                      A
 Frequencies --   1232.5014              1232.9465              1250.1073
 Red. masses --      1.4980                 5.4846                 3.1047
 Frc consts  --      1.3407                 4.9122                 2.8586
 IR Inten    --      3.7555                98.5994                60.5162
 Raman Activ --      0.1409                 0.1870                 0.6309

                     28                     29                     30
                      A                      A                      A
 Frequencies --   1338.8471              1373.3762              1544.4863
 Red. masses --      1.2168                 1.2380                 1.2358
 Frc consts  --      1.2851                 1.3758                 1.7368
 IR Inten    --      2.9049                31.3062                12.4752
 Raman Activ --      4.1165                 7.1086                 0.8023

                     31                     32                     33
                      A                      A                      A
 Frequencies --   1622.6476              1667.4902              1736.1176
 Red. masses --      2.0476                 1.7358                 3.9087
 Frc consts  --      3.1764                 2.8437                 6.9412
 IR Inten    --     95.3323                17.4193                 7.9195
 Raman Activ --      0.7098                 0.1587                 7.2097

                     34                     35                     36
                      A                      A                      A
 Frequencies --   1792.4568              3386.5477              3413.1932
 Red. masses --      4.1806                 1.0913                 1.0918
 Frc consts  --      7.9137                 7.3741                 7.4938
 IR Inten    --     92.8154                 1.3284                 0.5540
 Raman Activ --     24.3572                71.3779                68.0139

                     37                     38                     39
                      A                      A                      A
 Frequencies --   3417.5313              3442.2081              3461.4225
 Red. masses --      1.0955                 1.0976                 1.0964
 Frc consts  --      7.5389                 7.6628                 7.7399
 IR Inten    --      0.3768                 7.3214                13.2479
 Raman Activ --    107.9481                57.3146                58.6724

 - Thermochemistry -
 -------------------
 Temperature   298.150 Kelvin.  Pressure   1.00000 Atm.
 Atom     1 has atomic number  6 and mass  12.00000

 Molecular mass:   194.95806 amu.
 Principal axes and moments of inertia in atomic units:
                           1         2         3
     Eigenvalues --  1513.926292951.036133252.96821
           X            1.00000  -0.00189   0.00000
           Y            0.00189   1.00000   0.00002
           Z           -0.00000  -0.00002   1.00000
 This molecule is an asymmetric top.
 Rotational symmetry number  1.
 Warning -- assumption of classical behavior for rotation
           may cause significant error
 Rotational temperatures (Kelvin)      0.05721     0.02935     0.02663
 Rotational constants (GHZ):           1.19209     0.61156     0.55480
 Zero-point vibrational energy     282542.1 (Joules/Mol)
                                   67.52919 (Kcal/Mol)
 Warning -- explicit consideration of  11 degrees of freedom as
           vibrations may cause significant error
 Vibrational temperatures:     38.77   150.75   244.28   311.71   321.25
          (Kelvin)            364.95   435.87   495.37   539.29   659.01
                              768.80   940.95  1030.72  1051.24  1116.87
                             1158.77  1213.94  1323.57  1475.17  1600.71
                             1669.47  1691.03  1714.19  1733.25  1773.29
                             1773.94  1798.63  1926.30  1975.98  2222.17
                             2334.63  2399.15  2497.89  2578.95  4872.49
                             4910.82  4917.07  4952.57  4980.21

 Zero-point correction=                           0.107615 (Hartree/Particle)
 Thermal correction to Energy=                    0.116605
 Thermal correction to Enthalpy=                  0.117550
 Thermal correction to Gibbs Free Energy=         0.071276
 Sum of electronic and zero-point Energies=          -1641.811897
 Sum of electronic and thermal Energies=             -1641.802907
 Sum of electronic and thermal Enthalpies=           -1641.801962
 Sum of electronic and thermal Free Energies=        -1641.848236

                     E (Thermal)             CV                S
                      KCal/Mol        Cal/Mol-Kelvin    Cal/Mol-Kelvin
 Total                   73.171             31.809             97.390
 Electronic               0.000              0.000              0.000
 Translational            0.889              2.981             41.708
 Rotational               0.889              2.981             31.053
 Vibrational             71.394             25.847             24.629
 Vibration     1          0.593              1.984              6.042
 Vibration     2          0.605              1.945              3.363
 Vibration     3          0.625              1.880              2.438
 Vibration     4          0.645              1.816              1.987
 Vibration     5          0.649              1.806              1.932
 Vibration     6          0.665              1.757              1.705
 Vibration     7          0.694              1.668              1.401
 Vibration     8          0.723              1.587              1.192
 Vibration     9          0.746              1.524              1.060
 Vibration    10          0.816              1.343              0.772
 Vibration    11          0.889              1.174              0.578

 Optimization completed.
    -- Stationary point found.
 Normal termination of Gaussian 16 at Mon Jun 16 22:24:11 2025.
