 Gaussian 16, Revision B.01,
 Gaussian 16:  EM64L-G16RevB.01 20-Dec-2017

 -------------------------------------
 # hf/3-21g pop=full geom=connectivity
 -------------------------------------

 -------------------
 Title Card Required
 -------------------
 Symbolic Z-matrix:
 Charge =  0 Multiplicity = 1

                         Standard orientation:
 ---------------------------------------------------------------------
 Center     Atomic      Atomic             Coordinates (Angstroms)
 Number     Number       Type             X           Y           Z
 ---------------------------------------------------------------------
      1          6           0        1.172928   -0.698910    0.000102
      2          6           0        1.184727    0.676639    0.000084
      3          6           0       -0.016809    1.358217   -0.000018
      4          6           0       -1.205130    0.643094   -0.000080
      5          6           0       -1.155279   -0.725339   -0.000074
      6          7           0        0.021172   -1.382717   -0.000022
      7          1           0       -0.031668    2.428951   -0.000091
      8          1           0        2.069434   -1.273779    0.000201
      9          1           0        2.120187    1.193063    0.000158
     10          1           0       -2.153047    1.136207   -0.000147
     11          1           0       -2.035732   -1.327635   -0.000039
 ---------------------------------------------------------------------

 SCF Done:  E(RHF) =  -245.310911991     A.U. after   13 cycles

 The electronic state is 1-A.
 Alpha  occ. eigenvalues --  -15.49091 -11.21681 -11.21633 -11.20095 -11.18658
 Alpha  occ. eigenvalues --  -11.18644  -1.26750  -1.09174  -1.04494  -0.86470
 Alpha  occ. eigenvalues --   -0.85676  -0.73380  -0.66503  -0.65540  -0.61529
 Alpha  occ. eigenvalues --   -0.57548  -0.54576  -0.52135  -0.39810  -0.37993
 Alpha  occ. eigenvalues --   -0.35876
 Alpha virt. eigenvalues --    0.12841   0.14107   0.26321   0.31566   0.33840
 Alpha virt. eigenvalues --    0.36177   0.36237   0.36635   0.44423   0.49573
 Alpha virt. eigenvalues --    0.53251   0.54840   0.73360   0.75977   0.91295

 Mulliken charges:
               1
     1  C    0.123478
     2  C   -0.335794
     3  C   -0.174067
     4  C   -0.334968
     5  C    0.118271
     6  N   -0.665507
     7  H    0.254838
     8  H    0.259418
     9  H    0.247364
    10  H    0.247792
    11  H    0.259174
 Sum of Mulliken charges =  -0.00000

 Dipole moment (field-independent basis, Debye):
    X=             -0.0292    Y=              2.3560    Z=              0.0001  Tot=              2.3561
 Quadrupole moment (field-independent basis, Debye-Ang):
   XX=            -28.6952   YY=            -36.6682   ZZ=            -38.8179
   XY=              0.0898   XZ=              0.0006   YZ=             -0.0004

 Normal termination of Gaussian 16 at Mon Jun 16 22:33:25 2025.
