 Gaussian 16, Revision B.01,
 Gaussian 16:  EM64L-G16RevB.01 20-Dec-2017

 ----------------------------------------------
 # opt freq hf/3-21g pop=full geom=connectivity
 ----------------------------------------------

 -------------------
 Title Card Required
 -------------------
 Symbolic Z-matrix:
 Charge = -1 Multiplicity = 1

 SCF Done:  E(RHF) =  -2070.20140923     A.U. after    9 cycles
 SCF Done:  E(RHF) =  -2070.20143326     A.U. after    7 cycles
 Optimization completed.
    -- Stationary point found.
 Normal termination of Gaussian 16 at Fri Jun 13 21:21:10 2025.

 --------------------------------------------------------------
 #N Geom=AllCheck Guess=TCheck SCRF=Check GenChk RHF/3-21G Freq
 --------------------------------------------------------------

 Structure from the checkpoint file:  "AlCl4_ion_opt.chk"
 -------------------
 Title Card Required
 -------------------
 Charge = -1 Multiplicity = 1

                         Standard orientation:
 ---------------------------------------------------------------------
 Center     Atomic      Atomic             Coordinates (Angstroms)
 Number     Number       Type             X           Y           Z
 ---------------------------------------------------------------------
      1         13           0        0.000000    0.000000    0.000000
      2         17           0        1.290854    1.290854    1.290854
      3         17           0       -1.290854   -1.290854    1.290854
      4         17           0        1.290854   -1.290854   -1.290854
      5         17           0       -1.290854    1.290854   -1.290854
 ---------------------------------------------------------------------

 SCF Done:  E(RHF) =  -2070.20143326     A.U. after    1 cycles

 The electronic state is 1-A1.
 Alpha  occ. eigenvalues -- -103.94716-103.94676-103.94676-103.94676 -58.05133
 Alpha  occ. eigenvalues --  -10.33891 -10.33760 -10.33760 -10.33760  -7.80109
 Alpha  occ. eigenvalues --   -7.80109  -7.80109  -7.80094  -7.79835  -7.79835
 Alpha  occ. eigenvalues --   -7.79835  -7.79819  -7.79819  -7.79819  -7.79789
 Alpha  occ. eigenvalues --   -7.79789  -4.84511  -3.15026  -3.15026  -3.15026
 Alpha  occ. eigenvalues --   -0.94630  -0.92137  -0.92137  -0.92137  -0.45534
 Alpha  occ. eigenvalues --   -0.36959  -0.36959  -0.36959  -0.32573  -0.32573
 Alpha  occ. eigenvalues --   -0.31197  -0.31197  -0.31197  -0.30074  -0.30074
 Alpha  occ. eigenvalues --   -0.30074
 Alpha virt. eigenvalues --    0.25452   0.31512   0.31512   0.31512   0.42350
 Alpha virt. eigenvalues --    0.49999   0.49999   0.49999   0.89375   0.89375
 Alpha virt. eigenvalues --    0.89375   0.89662   0.89662   0.92880   1.02673

 Mulliken charges:
               1
     1  Al   1.431764
     2  Cl  -0.607941
     3  Cl  -0.607941
     4  Cl  -0.607941
     5  Cl  -0.607941
 Sum of Mulliken charges =  -1.00000

 Dipole moment (field-independent basis, Debye):
    X=              0.0000    Y=              0.0000    Z=              0.0000  Tot=              0.0000
 Quadrupole moment (field-independent basis, Debye-Ang):
   XX=            -82.4644   YY=            -82.4644   ZZ=            -82.4644
   XY=             -0.0000   XZ=             -0.0000   YZ=              0.0000

  Exact polarizability:  44.290   0.000  44.290   0.000   0.000  44.290
 Approx polarizability:  34.252   0.000  34.252   0.000   0.000  34.252

                      1                      2                      3
                      E                      E                     T2
 Frequencies --    117.3125               117.3125               174.2661
 Red. masses --     34.9689                34.9689                33.3700
 Frc consts  --      0.2835                 0.2835                 0.5971
 IR Inten    --      0.0000                 0.0000                22.7935
 Raman Activ --      2.3644                 2.3644                 3.8427

                      4                      5                      6
                     T2                     T2                     A1
 Frequencies --    174.2661               174.2661               337.2373
 Red. masses --     33.3700                33.3700                34.9689
 Frc consts  --      0.5971                 0.5971                 2.3432
 IR Inten    --     22.7935                22.7935                 0.0000
 Raman Activ --      3.8427                 3.8427                 8.7891

                      7                      8                      9
                     T2                     T2                     T2
 Frequencies --    508.4369               508.4369               508.4369
 Red. masses --     29.1347                29.1347                29.1347
 Frc consts  --      4.4375                 4.4375                 4.4375
 IR Inten    --    203.6028               203.6028               203.6028
 Raman Activ --      0.3984                 0.3984                 0.3984

 - Thermochemistry -
 -------------------
 Temperature   298.150 Kelvin.  Pressure   1.00000 Atm.
 Atom     1 has atomic number 13 and mass  26.98154

 Molecular mass:   166.85695 amu.
 Principal axes and moments of inertia in atomic units:
                           1         2         3
     Eigenvalues --  1664.651171664.651171664.65117
           X            0.89568  -0.35752  -0.26447
           Y            0.39607   0.37089   0.83998
           Z            0.20221   0.85710  -0.47380
 This molecule is a spherical top.
 Rotational symmetry number 12.
 Warning -- assumption of classical behavior for rotation
           may cause significant error
 Rotational temperatures (Kelvin)      0.05203     0.05203     0.05203
 Rotational constants (GHZ):           1.08416     1.08416     1.08416
 Zero-point vibrational energy      15670.9 (Joules/Mol)
                                    3.74544 (Kcal/Mol)
 Warning -- explicit consideration of   9 degrees of freedom as
           vibrations may cause significant error
 Vibrational temperatures:    168.79   168.79   250.73   250.73   250.73
          (Kelvin)            485.21   731.53   731.53   731.53

 Zero-point correction=                           0.005969 (Hartree/Particle)
 Thermal correction to Energy=                    0.013041
 Thermal correction to Enthalpy=                  0.013985
 Thermal correction to Gibbs Free Energy=        -0.025361
 Sum of electronic and zero-point Energies=          -2070.195465
 Sum of electronic and thermal Energies=             -2070.188392
 Sum of electronic and thermal Enthalpies=           -2070.187448
 Sum of electronic and thermal Free Energies=        -2070.226794

                     E (Thermal)             CV                S
                      KCal/Mol        Cal/Mol-Kelvin    Cal/Mol-Kelvin
 Total                    8.184             20.749             82.811
 Electronic               0.000              0.000              0.000
 Translational            0.889              2.981             41.244
 Rotational               0.889              2.981             24.975
 Vibrational              6.406             14.787             16.593
 Vibration     1          0.608              1.935              3.144
 Vibration     2          0.608              1.935              3.144
 Vibration     3          0.627              1.874              2.389
 Vibration     4          0.627              1.874              2.389
 Vibration     5          0.627              1.874              2.389
 Vibration     6          0.718              1.601              1.225
 Vibration     7          0.864              1.231              0.637
 Vibration     8          0.864              1.231              0.637
 Vibration     9          0.864              1.231              0.637

 Optimization completed.
    -- Stationary point found.
 Normal termination of Gaussian 16 at Fri Jun 13 21:21:12 2025.
