 Gaussian 16, Revision B.01,
 Gaussian 16:  EM64L-G16RevB.01 20-Dec-2017

 -------------------------------------
 # hf/3-21g pop=full geom=connectivity
 -------------------------------------

 -------------------
 Title Card Required
 -------------------
 Symbolic Z-matrix:
 Charge = -1 Multiplicity = 1

                         Standard orientation:
 ---------------------------------------------------------------------
 Center     Atomic      Atomic             Coordinates (Angstroms)
 Number     Number       Type             X           Y           Z
 ---------------------------------------------------------------------
      1         13           0        0.000000    0.000000    0.000000
      2         17           0        1.290854    1.290854    1.290854
      3         17           0       -1.290854   -1.290854    1.290854
      4         17           0        1.290854   -1.290854   -1.290854
      5         17           0       -1.290854    1.290854   -1.290854
 ---------------------------------------------------------------------

 SCF Done:  E(RHF) =  -2070.20143326     A.U. after    9 cycles

 The electronic state is 1-A1.
 Alpha  occ. eigenvalues -- -103.94716-103.94676-103.94676-103.94676 -58.05133
 Alpha  occ. eigenvalues --  -10.33891 -10.33760 -10.33760 -10.33760  -7.80109
 Alpha  occ. eigenvalues --   -7.80109  -7.80109  -7.80094  -7.79835  -7.79835
 Alpha  occ. eigenvalues --   -7.79835  -7.79819  -7.79819  -7.79819  -7.79789
 Alpha  occ. eigenvalues --   -7.79789  -4.84511  -3.15026  -3.15026  -3.15026
 Alpha  occ. eigenvalues --   -0.94630  -0.92137  -0.92137  -0.92137  -0.45534
 Alpha  occ. eigenvalues --   -0.36959  -0.36959  -0.36959  -0.32573  -0.32573
 Alpha  occ. eigenvalues --   -0.31197  -0.31197  -0.31197  -0.30074  -0.30074
 Alpha  occ. eigenvalues --   -0.30074
 Alpha virt. eigenvalues --    0.25452   0.31512   0.31512   0.31512   0.42350
 Alpha virt. eigenvalues --    0.49999   0.49999   0.49999   0.89375   0.89375
 Alpha virt. eigenvalues --    0.89375   0.89662   0.89662   0.92880   1.02673

 Mulliken charges:
               1
     1  Al   1.431764
     2  Cl  -0.607941
     3  Cl  -0.607941
     4  Cl  -0.607941
     5  Cl  -0.607941
 Sum of Mulliken charges =  -1.00000

 Dipole moment (field-independent basis, Debye):
    X=             -0.0000    Y=             -0.0000    Z=             -0.0000  Tot=              0.0000
 Quadrupole moment (field-independent basis, Debye-Ang):
   XX=            -82.4644   YY=            -82.4644   ZZ=            -82.4644
   XY=             -0.0000   XZ=             -0.0000   YZ=             -0.0000

 Normal termination of Gaussian 16 at Fri Jun 13 21:21:59 2025.
