 Gaussian 16, Revision B.01,
 Gaussian 16:  EM64L-G16RevB.01 20-Dec-2017

 -----------------------------------------
 # opt freq am1 pop=full geom=connectivity
 -----------------------------------------

 ------------
 Optimisation
 ------------
 Symbolic Z-matrix:
 Charge =  0 Multiplicity = 1

 SCF Done:  E(RAM1) =  0.705114739961E-01 A.U. after   12 cycles
 SCF Done:  E(RAM1) =  0.619903052548E-01 A.U. after   11 cycles
 SCF Done:  E(RAM1) =  0.616982052853E-01 A.U. after   11 cycles
 SCF Done:  E(RAM1) =  0.616000366804E-01 A.U. after   10 cycles
 SCF Done:  E(RAM1) =  0.614798579939E-01 A.U. after   11 cycles
 SCF Done:  E(RAM1) =  0.614357447606E-01 A.U. after   11 cycles
 SCF Done:  E(RAM1) =  0.614018000078E-01 A.U. after   11 cycles
 SCF Done:  E(RAM1) =  0.613961227907E-01 A.U. after    9 cycles
 SCF Done:  E(RAM1) =  0.613957245247E-01 A.U. after    9 cycles
 SCF Done:  E(RAM1) =  0.613957062917E-01 A.U. after    8 cycles
 Optimization completed.
    -- Stationary point found.
 Normal termination of Gaussian 16 at Thu Jun 12 21:58:16 2025.

 -------------------------------------------------------------
 #N Geom=AllCheck Guess=TCheck SCRF=Check GenChk RAM1/ZDO Freq
 -------------------------------------------------------------

 Structure from the checkpoint file:  "toluene_isomer_opt.chk"
 ------------
 Optimisation
 ------------
 Charge =  0 Multiplicity = 1

                         Standard orientation:
 ---------------------------------------------------------------------
 Center     Atomic      Atomic             Coordinates (Angstroms)
 Number     Number       Type             X           Y           Z
 ---------------------------------------------------------------------
      1          6           0       -1.200015   -1.157296   -0.000220
      2          6           0       -1.844163    0.021786   -0.000477
      3          6           0       -1.104571    1.264717    0.000077
      4          6           0        0.242889    1.263666    0.000431
      5          6           0        1.016581    0.031559    0.000127
      6          6           0        0.277921   -1.268860    0.000636
      7          1           0       -1.745951   -2.113015   -0.000498
      8          1           0       -2.942473    0.083090   -0.001108
      9          1           0       -1.680742    2.201706    0.000163
     10          1           0        0.814829    2.205160    0.000884
     11          6           0        2.358668    0.050651   -0.000601
     12          1           0        2.932598    0.985311   -0.000895
     13          1           0        2.955421   -0.869624   -0.000972
     14          1           0        0.590719   -1.864274    0.905142
     15          1           0        0.591735   -1.865694   -0.902553
 ---------------------------------------------------------------------

 SCF Done:  E(RAM1) =  0.613957062911E-01 A.U. after    2 cycles

 The electronic state is 1-A.
 Alpha  occ. eigenvalues --   -1.43371  -1.23039  -1.16594  -0.99434  -0.85527
 Alpha  occ. eigenvalues --   -0.78314  -0.63291  -0.60375  -0.58378  -0.54812
 Alpha  occ. eigenvalues --   -0.51855  -0.50414  -0.48226  -0.44241  -0.43107
 Alpha  occ. eigenvalues --   -0.41919  -0.39493  -0.31098
 Alpha virt. eigenvalues --   -0.00154   0.05376   0.09024   0.13358   0.14217
 Alpha virt. eigenvalues --    0.15063   0.15598   0.16109   0.16496   0.16616
 Alpha virt. eigenvalues --    0.17666   0.17984   0.18807   0.19712   0.20721

 Mulliken charges:
               1
     1  C   -0.148306
     2  C   -0.142549
     3  C   -0.122861
     4  C   -0.125589
     5  C   -0.070182
     6  C   -0.103838
     7  H    0.124698
     8  H    0.128819
     9  H    0.129504
    10  H    0.127402
    11  C   -0.225100
    12  H    0.115057
    13  H    0.112782
    14  H    0.100088
    15  H    0.100075
 Sum of Mulliken charges =   0.00000

 Dipole moment (field-independent basis, Debye):
    X=             -0.0265    Y=             -0.3507    Z=              0.0004  Tot=              0.3517
 N-N= 1.572914287842D+02 E-N=-2.333713581704D+02  KE=-5.641894394774D+01
 Orbital energies and kinetic energies (alpha):
                                 1                 2
   1         O                -1.433711         -2.440049
   2         O                -1.230388         -2.217635
   3         O                -1.165944         -2.117479
   4         O                -0.994339         -1.909799
   5         O                -0.855269         -1.760079
   6         O                -0.783137         -1.669510
   7         O                -0.632905         -1.357411

  Exact polarizability: 103.774   0.922  70.195  -0.009  -0.001  18.139
 Approx polarizability:  74.766  -3.100  49.774  -0.005  -0.001  12.735

                      1                      2                      3
                      A                      A                      A
 Frequencies --     61.6592               249.7367               399.5020
 Red. masses --      2.3812                 2.1864                 2.3215
 Frc consts  --      0.0053                 0.0803                 0.2183
 IR Inten    --      0.2595                 0.9290                 0.2414

                      4                      5                      6
                      A                      A                      A
 Frequencies --    422.5700               520.6710               526.3486
 Red. masses --      2.2158                 1.6570                 6.1070
 Frc consts  --      0.2331                 0.2647                 0.9968
 IR Inten    --      2.1666                15.5614                 1.3244

                      7                      8                      9
                      A                      A                      A
 Frequencies --    609.1405               616.3170               783.3300
 Red. masses --      1.1129                 6.2410                 1.2478
 Frc consts  --      0.2433                 1.3967                 0.4511
 IR Inten    --      7.7455                 0.6044                51.7573

                     10                     11                     12
                      A                      A                      A
 Frequencies --    849.6441               911.1748               957.7743
 Red. masses --      1.2903                 4.9871                 1.4596
 Frc consts  --      0.5488                 2.4395                 0.7889
 IR Inten    --     12.3637                 1.1037                 1.0072

                     13                     14                     15
                      A                      A                      A
 Frequencies --    982.4070               985.7490              1017.5840
 Red. masses --      1.5738                 1.5404                 1.7678
 Frc consts  --      0.8949                 0.8819                 1.0785
 IR Inten    --      1.6579                 0.1047                10.0680

                     16                     17                     18
                      A                      A                      A
 Frequencies --   1020.8875              1043.7571              1140.5330
 Red. masses --      2.7424                 1.4899                 1.5537
 Frc consts  --      1.6840                 0.9563                 1.1908
 IR Inten    --      0.3379                40.0795                 2.0907

                     19                     20                     21
                      A                      A                      A
 Frequencies --   1157.5651              1162.5620              1208.9247
 Red. masses --      1.5626                 1.1077                 1.0357
 Frc consts  --      1.2336                 0.8821                 0.8918
 IR Inten    --      0.1344                 1.6407                 0.0901

                     22                     23                     24
                      A                      A                      A
 Frequencies --   1228.0835              1335.2957              1361.2938
 Red. masses --      1.0311                 1.2546                 1.1364
 Frc consts  --      0.9162                 1.3179                 1.2408
 IR Inten    --      0.7272                 0.1399                 3.6217

                     25                     26                     27
                      A                      A                      A
 Frequencies --   1399.7518              1452.3872              1464.0311
 Red. masses --      1.2887                 2.1495                 2.5774
 Frc consts  --      1.4876                 2.6715                 3.2549
 IR Inten    --      2.5421                 1.3351                 0.6640

                     28                     29                     30
                      A                      A                      A
 Frequencies --   1538.3922              1828.3040              1841.7276
 Red. masses --      7.0850                10.1587                 9.0280
 Frc consts  --      9.8793                20.0071                18.0424
 IR Inten    --      0.5798                 1.3963                 3.5104

                     31                     32                     33
                      A                      A                      A
 Frequencies --   1863.7810              2979.6547              3058.7005
 Red. masses --      9.7200                 1.0886                 1.0483
 Frc consts  --     19.8932                 5.6943                 5.7785
 IR Inten    --      1.5065                 4.1045                 5.2893

                     34                     35                     36
                      A                      A                      A
 Frequencies --   3173.3407              3177.4151              3183.2702
 Red. masses --      1.0765                 1.0754                 1.1052
 Frc consts  --      6.3869                 6.3967                 6.5984
 IR Inten    --     31.8802                24.2808                 7.4654

                     37                     38                     39
                      A                      A                      A
 Frequencies --   3187.3471              3196.2813              3219.5896
 Red. masses --      1.0804                 1.0877                 1.0528
 Frc consts  --      6.4666                 6.5472                 6.4301
 IR Inten    --     18.1202                43.9807                47.8729

 - Thermochemistry -
 -------------------
 Temperature   298.150 Kelvin.  Pressure   1.00000 Atm.
 Atom     1 has atomic number  6 and mass  12.00000

 Molecular mass:    92.06260 amu.
 Principal axes and moments of inertia in atomic units:
                           1         2         3
     Eigenvalues --   351.64278 673.649551013.53146
           X            0.99999  -0.00402  -0.00000
           Y            0.00402   0.99999  -0.00000
           Z            0.00000   0.00000   1.00000
 This molecule is an asymmetric top.
 Rotational symmetry number  1.
 Rotational temperatures (Kelvin)      0.24631     0.12857     0.08546
 Rotational constants (GHZ):           5.13231     2.67905     1.78065
 Zero-point vibrational energy     341632.4 (Joules/Mol)
                                   81.65211 (Kcal/Mol)
 Warning -- explicit consideration of   8 degrees of freedom as
           vibrations may cause significant error
 Vibrational temperatures:     88.71   359.32   574.79   607.98   749.13
          (Kelvin)            757.30   876.42   886.74  1127.04  1222.45
                             1310.98  1378.02  1413.46  1418.27  1464.08
                             1468.83  1501.73  1640.97  1665.48  1672.67
                             1739.37  1766.94  1921.19  1958.60  2013.93
                             2089.66  2106.41  2213.40  2630.52  2649.84
                             2681.57  4287.06  4400.79  4565.73  4571.59
                             4580.02  4585.88  4598.74  4632.27

 Zero-point correction=                           0.130121 (Hartree/Particle)
 Thermal correction to Energy=                    0.136128
 Thermal correction to Enthalpy=                  0.137072
 Thermal correction to Gibbs Free Energy=         0.100053
 Sum of electronic and zero-point Energies=              0.191517
 Sum of electronic and thermal Energies=                 0.197524
 Sum of electronic and thermal Enthalpies=               0.198468
 Sum of electronic and thermal Free Energies=            0.161448

                     E (Thermal)             CV                S
                      KCal/Mol        Cal/Mol-Kelvin    Cal/Mol-Kelvin
 Total                   85.422             22.753             77.915
 Electronic               0.000              0.000              0.000
 Translational            0.889              2.981             39.471
 Rotational               0.889              2.981             26.976
 Vibrational             83.644             16.791             11.467
 Vibration     1          0.597              1.973              4.403
 Vibration     2          0.663              1.763              1.732
 Vibration     3          0.766              1.471              0.964
 Vibration     4          0.785              1.421              0.883
 Vibration     5          0.876              1.204              0.608
 Vibration     6          0.881              1.192              0.595
 Vibration     7          0.968              1.012              0.434
 Vibration     8          0.976              0.997              0.422

                           ! Non-Optimized Parameters !
 Normal termination of Gaussian 16 at Thu Jun 12 21:58:17 2025.
