 Gaussian 16, Revision B.01,
 Gaussian 16:  EM64L-G16RevB.01 20-Dec-2017

 --------------------------------
 # opt freq am1 geom=connectivity
 --------------------------------

 -------------------
 Title Card Required
 -------------------
 Symbolic Z-matrix:
 Charge =  0 Multiplicity = 1

 SCF Done:  E(RAM1) =  0.295382173478E-01 A.U. after   14 cycles
 SCF Done:  E(RAM1) =  0.232824995687E-01 A.U. after   12 cycles
 SCF Done:  E(RAM1) =  0.229040900312E-01 A.U. after   12 cycles
 SCF Done:  E(RAM1) =  0.228012576533E-01 A.U. after   11 cycles
 SCF Done:  E(RAM1) =  0.228002282003E-01 A.U. after   10 cycles
 Optimization completed.
    -- Stationary point found.
 Normal termination of Gaussian 16 at Thu Jun 12 21:21:18 2025.

 -------------------------------------------------------------
 #N Geom=AllCheck Guess=TCheck SCRF=Check GenChk RAM1/ZDO Freq
 -------------------------------------------------------------

 Structure from the checkpoint file:  "toluene.chk"
 -------------------
 Title Card Required
 -------------------
 Charge =  0 Multiplicity = 1

                         Standard orientation:
 ---------------------------------------------------------------------
 Center     Atomic      Atomic             Coordinates (Angstroms)
 Number     Number       Type             X           Y           Z
 ---------------------------------------------------------------------
      1          6           0       -1.890593   -0.000467    0.003484
      2          6           0       -1.190638   -1.207121    0.000782
      3          6           0        0.203105   -1.207668   -0.004338
      4          6           0        0.910771    0.000580   -0.006223
      5          6           0        0.202325    1.208201   -0.004335
      6          6           0       -1.191544    1.206591    0.000777
      7          1           0       -2.990043   -0.000908    0.006972
      8          1           0       -1.738821   -2.160618    0.002128
      9          1           0        0.752219   -2.160875   -0.007622
     10          1           0        0.750419    2.162009   -0.007595
     11          1           0       -1.740332    2.159743    0.002127
     12          6           0        2.391499    0.000185    0.003924
     13          1           0        2.765475   -0.024957    1.058788
     14          1           0        2.795114   -0.894605   -0.530887
     15          1           0        2.796425    0.918409   -0.488332
 ---------------------------------------------------------------------

 SCF Done:  E(RAM1) =  0.228002281998E-01 A.U. after    2 cycles

 The electronic state is 1-A.
 Alpha  occ. eigenvalues --   -1.44811  -1.22690  -1.15248  -1.00838  -0.85127
 Alpha  occ. eigenvalues --   -0.80668  -0.63861  -0.58570  -0.58078  -0.53260
 Alpha  occ. eigenvalues --   -0.51936  -0.50988  -0.47752  -0.46716  -0.43917
 Alpha  occ. eigenvalues --   -0.43128  -0.35365  -0.34286
 Alpha virt. eigenvalues --    0.01912   0.02224   0.10799   0.14346   0.14926
 Alpha virt. eigenvalues --    0.15017   0.15463   0.15928   0.16700   0.16883
 Alpha virt. eigenvalues --    0.17400   0.17696   0.19097   0.19202   0.20698

 Mulliken charges:
               1
     1  C   -0.134801
     2  C   -0.126706
     3  C   -0.130923
     4  C   -0.069726
     5  C   -0.130772
     6  C   -0.126743
     7  H    0.129942
     8  H    0.129740
     9  H    0.130058
    10  H    0.130065
    11  H    0.129739
    12  C   -0.179199
    13  H    0.085605
    14  H    0.081970
    15  H    0.081750
 Sum of Mulliken charges =  -0.00000

 Dipole moment (field-independent basis, Debye):
    X=              0.2621    Y=             -0.0020    Z=              0.0400  Tot=              0.2651
 N-N= 1.570618323404D+02 E-N=-2.329112460471D+02  KE=-5.642205052519D+01
  Exact polarizability:  83.181  -0.039  74.712   0.406  -0.000  17.409
 Approx polarizability:  65.951  -0.031  63.298   0.197  -0.000  12.072
 Calling FoFJK, ICntrl=    100127 FMM=F ISym2X=0 I1Cent= 0 IOpClX= 0 NMat=1 NMatS=1 NMatT=0.
 Full mass-weighted force constant matrix:
 Low frequencies ---   -0.0579   -0.0126   -0.0033    7.1398    8.9386   11.5449
 Low frequencies ---   21.5514  196.1713  368.8585
 Diagonal vibrational polarizability:
        0.3905746       6.2368029       6.3816129
 Harmonic frequencies (cm**-1), IR intensities (KM/Mole), Raman scattering

                      1                      2                      3
                      A                      A                      A
 Frequencies --     21.3022               196.1706               368.8584
 Red. masses --      1.0372                 2.8602                 2.5410
 Frc consts  --      0.0003                 0.0649                 0.2037
 IR Inten    --      0.0981                 1.3531                 0.2680

                      4                      5                      6
                      A                      A                      A
 Frequencies --    372.1650               460.5089               568.4755
 Red. masses --      2.3474                 2.3768                 5.5086
 Frc consts  --      0.1916                 0.2970                 1.0489
 IR Inten    --      0.0456                 7.2659                 0.2106

                      7                      8                      9
                      A                      A                      A
 Frequencies --    636.5405               658.9951               788.4475
 Red. masses --      1.9250                 6.6530                 1.1920
 Frc consts  --      0.4595                 1.7023                 0.4366
 IR Inten    --     11.7197                 0.0185                81.1324

                     10                     11                     12
                      A                      A                      A
 Frequencies --    889.2288               921.0797               936.6843
 Red. masses --      1.2506                 4.3158                 1.4254
 Frc consts  --      0.5826                 2.1573                 0.7368
 IR Inten    --      0.0020                 0.0878                 0.8550

                     13                     14                     15
                      A                      A                      A
 Frequencies --    988.1403              1003.6006              1042.8820
 Red. masses --      1.5540                 1.7002                 1.3111
 Frc consts  --      0.8940                 1.0090                 0.8401
 IR Inten    --      0.0031                 0.0129                 0.8387

                     16                     17                     18
                      A                      A                      A
 Frequencies --   1077.1767              1105.3726              1170.1301
 Red. masses --      1.5683                 2.2724                 1.1649
 Frc consts  --      1.0721                 1.6359                 0.9397
 IR Inten    --      5.1020                 0.0986                 0.7762

                     19                     20                     21
                      A                      A                      A
 Frequencies --   1188.9698              1197.6303              1228.9364
 Red. masses --      1.8437                 1.1046                 1.0603
 Frc consts  --      1.5356                 0.9335                 0.9435
 IR Inten    --      0.7907                 0.2020                 0.0181

                     22                     23                     24
                      A                      A                      A
 Frequencies --   1317.3908              1370.7795              1383.2863
 Red. masses --      1.3176                 2.3275                 1.0907
 Frc consts  --      1.3473                 2.5767                 1.2297
 IR Inten    --      0.0852                 0.0327                 2.4207

                     25                     26                     27
                      A                      A                      A
 Frequencies --   1384.2152              1412.9947              1462.5373
 Red. masses --      1.3514                 1.6138                 2.2896
 Frc consts  --      1.5256                 1.8984                 2.8855
 IR Inten    --      2.0548                 2.7077                 1.0128

                     28                     29                     30
                      A                      A                      A
 Frequencies --   1570.0562              1640.0425              1764.9882
 Red. masses --      4.4220                 5.8538                10.2470
 Frc consts  --      6.4224                 9.2768                18.8074
 IR Inten    --     10.0965                10.9002                 0.0738

                     31                     32                     33
                      A                      A                      A
 Frequencies --   1781.2477              3044.4497              3058.1102
 Red. masses --     10.6716                 1.0893                 1.0910
 Frc consts  --     19.9493                 5.9484                 6.0116
 IR Inten    --      2.4832                 1.7469                 1.7498

                     34                     35                     36
                      A                      A                      A
 Frequencies --   3148.2692              3183.5074              3184.2535
 Red. masses --      1.0285                 1.0772                 1.0754
 Frc consts  --      6.0062                 6.4323                 6.4246
 IR Inten    --      1.3271                 6.0531                 1.7750

                     37                     38                     39
                      A                      A                      A
 Frequencies --   3189.5620              3192.4248              3201.9982
 Red. masses --      1.0785                 1.0814                 1.0895
 Frc consts  --      6.4647                 6.4934                 6.5816
 IR Inten    --     29.0677                83.2097                23.1479

 - Thermochemistry -
 -------------------
 Temperature   298.150 Kelvin.  Pressure   1.00000 Atm.
 Atom     1 has atomic number  6 and mass  12.00000

 Molecular mass:    92.06260 amu.
 Principal axes and moments of inertia in atomic units:
                           1         2         3
     Eigenvalues --   328.93075 706.197651023.30389
           X            1.00000  -0.00003   0.00021
           Y            0.00003   1.00000   0.00000
           Z           -0.00021  -0.00000   1.00000
 This molecule is an asymmetric top.
 Rotational symmetry number  1.
 Rotational temperatures (Kelvin)      0.26332     0.12265     0.08464
 Rotational constants (GHZ):           5.48669     2.55558     1.76364
 Zero-point vibrational energy     341602.1 (Joules/Mol)
                                   81.64486 (Kcal/Mol)
 Warning -- explicit consideration of   6 degrees of freedom as
           vibrations may cause significant error
 Vibrational temperatures:     30.65   282.25   530.70   535.46   662.57
          (Kelvin)            817.91   915.84   948.15  1134.40  1279.40
                             1325.23  1347.68  1421.71  1443.96  1500.47
                             1549.82  1590.38  1683.56  1710.66  1723.12
                             1768.17  1895.43  1972.25  1990.24  1991.58
                             2032.98  2104.26  2258.96  2359.66  2539.42
                             2562.82  4380.28  4399.94  4529.66  4580.36
                             4581.43  4589.07  4593.19  4606.96

 Zero-point correction=                           0.130109 (Hartree/Particle)
 Thermal correction to Energy=                    0.136306
 Thermal correction to Enthalpy=                  0.137250
 Thermal correction to Gibbs Free Energy=         0.098951
 Sum of electronic and zero-point Energies=              0.152910
 Sum of electronic and thermal Energies=                 0.159106
 Sum of electronic and thermal Enthalpies=               0.160050
 Sum of electronic and thermal Free Energies=            0.121751

                     E (Thermal)             CV                S
                      KCal/Mol        Cal/Mol-Kelvin    Cal/Mol-Kelvin
 Total                   85.533             22.599             80.608
 Electronic               0.000              0.000              0.000
 Translational            0.889              2.981             39.471
 Rotational               0.889              2.981             26.966
 Vibrational             83.756             16.637             14.170
 Vibration     1          0.593              1.985              6.509
 Vibration     2          0.636              1.845              2.169
 Vibration     3          0.741              1.536              1.085
 Vibration     4          0.744              1.529              1.071
 Vibration     5          0.818              1.338              0.765
 Vibration     6          0.924              1.099              0.507

                           ! Non-Optimized Parameters !
 Normal termination of Gaussian 16 at Thu Jun 12 21:21:18 2025.
