 Gaussian 16, Revision B.01,
 Gaussian 16:  EM64L-G16RevB.01 20-Dec-2017

 ----------------------------------------------
 # opt freq hf/3-21g pop=full geom=connectivity
 ----------------------------------------------

 -------------------
 Title Card Required
 -------------------
 Symbolic Z-matrix:
 Charge = -1 Multiplicity = 1

 SCF Done:  E(RHF) =  -26.8067627056     A.U. after    8 cycles
 SCF Done:  E(RHF) =  -26.8128881634     A.U. after    8 cycles
 SCF Done:  E(RHF) =  -26.8129467493     A.U. after    6 cycles
 Optimization completed.
    -- Stationary point found.
 Normal termination of Gaussian 16 at Fri Jun 13 20:30:20 2025.

 --------------------------------------------------------------
 #N Geom=AllCheck Guess=TCheck SCRF=Check GenChk RHF/3-21G Freq
 --------------------------------------------------------------

 Structure from the checkpoint file:  "BH4_ion_opt.chk"
 -------------------
 Title Card Required
 -------------------
 Charge = -1 Multiplicity = 1

                         Standard orientation:
 ---------------------------------------------------------------------
 Center     Atomic      Atomic             Coordinates (Angstroms)
 Number     Number       Type             X           Y           Z
 ---------------------------------------------------------------------
      1          5           0        0.000000    0.000000    0.000000
      2          1           0        0.716403    0.716403    0.716403
      3          1           0       -0.716403    0.716403   -0.716403
      4          1           0        0.716403   -0.716403   -0.716403
      5          1           0       -0.716403   -0.716403    0.716403
 ---------------------------------------------------------------------

 SCF Done:  E(RHF) =  -26.8129467493     A.U. after    1 cycles

 The electronic state is 1-A1.
 Alpha  occ. eigenvalues --   -7.22703  -0.43272  -0.17024  -0.17024  -0.17024
 Alpha virt. eigenvalues --    0.55533   0.55533   0.55533   0.66856   0.91454
 Alpha virt. eigenvalues --    0.91454   0.91454   1.23397   1.66039   1.66039
 Alpha virt. eigenvalues --    1.66039   1.69874

 Mulliken charges:
               1
     1  B   -0.291050
     2  H   -0.177238
     3  H   -0.177238
     4  H   -0.177238
     5  H   -0.177238
 Sum of Mulliken charges =  -1.00000

 Dipole moment (field-independent basis, Debye):
    X=             -0.0000    Y=             -0.0000    Z=             -0.0000  Tot=              0.0000
 Quadrupole moment (field-independent basis, Debye-Ang):
   XX=            -14.4021   YY=            -14.4021   ZZ=            -14.4021
   XY=              0.0000   XZ=              0.0000   YZ=             -0.0000

  Exact polarizability:  17.923  -0.000  17.923  -0.000  -0.000  17.923
 Approx polarizability:  14.040  -0.000  14.040  -0.000  -0.000  14.040

                      1                      2                      3
                     T2                     T2                     T2
 Frequencies --   1219.5873              1219.5873              1219.5873
 Red. masses --      1.1967                 1.1967                 1.1967
 Frc consts  --      1.0487                 1.0487                 1.0487
 IR Inten    --     67.5794                67.5794                67.5794
 Raman Activ --      8.0648                 8.0648                 8.0648

                      4                      5                      6
                      E                      E                     T2
 Frequencies --   1330.4802              1330.4802              2337.4733
 Red. masses --      1.0078                 1.0078                 1.1023
 Frc consts  --      1.0511                 1.0511                 3.5483
 IR Inten    --      0.0000                 0.0000               515.6160
 Raman Activ --     78.8273                78.8273                67.1249

                      7                      8                      9
                     T2                     T2                     A1
 Frequencies --   2337.4733              2337.4733              2358.5025
 Red. masses --      1.1023                 1.1023                 1.0078
 Frc consts  --      3.5483                 3.5483                 3.3030
 IR Inten    --    515.6160               515.6160                 0.0000
 Raman Activ --     67.1249                67.1249               155.3574

 - Thermochemistry -
 -------------------
 Temperature   298.150 Kelvin.  Pressure   1.00000 Atm.
 Atom     1 has atomic number  5 and mass  11.00931

 Molecular mass:    15.04061 amu.
 Principal axes and moments of inertia in atomic units:
                           1         2         3
     Eigenvalues --    14.77703  14.77703  14.77703
           X            0.75391   0.61489   0.23138
           Y           -0.65621   0.68772   0.31053
           Z            0.03182  -0.38595   0.92197
 This molecule is a spherical top.
 Rotational symmetry number 12.
 Rotational temperatures (Kelvin)      5.86139     5.86139     5.86139
 Rotational constants (GHZ):         122.13155   122.13155   122.13155
 Zero-point vibrational energy      93850.9 (Joules/Mol)
                                   22.43090 (Kcal/Mol)
 Vibrational temperatures:   1754.71  1754.71  1754.71  1914.26  1914.26
          (Kelvin)           3363.10  3363.10  3363.10  3393.36

 Zero-point correction=                           0.035746 (Hartree/Particle)
 Thermal correction to Energy=                    0.038645
 Thermal correction to Enthalpy=                  0.039589
 Thermal correction to Gibbs Free Energy=         0.018148
 Sum of electronic and zero-point Energies=            -26.777201
 Sum of electronic and thermal Energies=               -26.774302
 Sum of electronic and thermal Enthalpies=             -26.773357
 Sum of electronic and thermal Free Energies=          -26.794799

                     E (Thermal)             CV                S
                      KCal/Mol        Cal/Mol-Kelvin    Cal/Mol-Kelvin
 Total                   24.250              6.819             45.127
 Electronic               0.000              0.000              0.000
 Translational            0.889              2.981             34.071
 Rotational               0.889              2.981             10.892
 Vibrational             22.473              0.857              0.164

 Optimization completed.
    -- Stationary point found.
 Normal termination of Gaussian 16 at Fri Jun 13 20:30:21 2025.
