 Gaussian 16, Revision B.01,
 Gaussian 16:  EM64L-G16RevB.01 20-Dec-2017

 -------------------------------------
 # hf/3-21g pop=full geom=connectivity
 -------------------------------------

 -------------------
 Title Card Required
 -------------------
 Symbolic Z-matrix:
 Charge = -1 Multiplicity = 1

                         Standard orientation:
 ---------------------------------------------------------------------
 Center     Atomic      Atomic             Coordinates (Angstroms)
 Number     Number       Type             X           Y           Z
 ---------------------------------------------------------------------
      1          5           0        0.000000    0.000000    0.000000
      2          1           0        0.716403    0.716403    0.716403
      3          1           0       -0.716403   -0.716403    0.716403
      4          1           0       -0.716403    0.716403   -0.716403
      5          1           0        0.716403   -0.716403   -0.716403
 ---------------------------------------------------------------------

 SCF Done:  E(RHF) =  -26.8129467493     A.U. after    8 cycles

 The electronic state is 1-A1.
 Alpha  occ. eigenvalues --   -7.22703  -0.43272  -0.17024  -0.17024  -0.17024
 Alpha virt. eigenvalues --    0.55533   0.55533   0.55533   0.66856   0.91454
 Alpha virt. eigenvalues --    0.91454   0.91454   1.23397   1.66039   1.66039
 Alpha virt. eigenvalues --    1.66039   1.69874

 Mulliken charges:
               1
     1  B   -0.291049
     2  H   -0.177238
     3  H   -0.177238
     4  H   -0.177238
     5  H   -0.177238
 Sum of Mulliken charges =  -1.00000

 Dipole moment (field-independent basis, Debye):
    X=             -0.0000    Y=             -0.0000    Z=              0.0000  Tot=              0.0000
 Quadrupole moment (field-independent basis, Debye-Ang):
   XX=            -14.4021   YY=            -14.4021   ZZ=            -14.4021
   XY=              0.0000   XZ=              0.0000   YZ=             -0.0000

 Normal termination of Gaussian 16 at Fri Jun 13 20:31:27 2025.
