 Gaussian 16, Revision B.01,
 Gaussian 16:  EM64L-G16RevB.01 20-Dec-2017

 ----------------------------
 # hf/3-21g geom=connectivity
 ----------------------------

 ---------------------------
 Toluene Energy Optimisation
 ---------------------------
 Symbolic Z-matrix:
 Charge =  0 Multiplicity = 1

                         Standard orientation:
 ---------------------------------------------------------------------
 Center     Atomic      Atomic             Coordinates (Angstroms)
 Number     Number       Type             X           Y           Z
 ---------------------------------------------------------------------
      1          6           0       -1.894809   -0.000089    0.000090
      2          6           0       -1.197027   -1.208216   -0.000342
      3          6           0        0.197685   -1.208193    0.000093
      4          6           0        0.895256    0.000365   -0.000239
      5          6           0        0.197574    1.208163   -0.000286
      6          6           0       -1.197564    1.207967    0.000275
      7          1           0       -2.994419   -0.000326    0.000197
      8          1           0       -1.747014   -2.160453    0.000289
      9          1           0        0.747754   -2.160412    0.000387
     10          1           0        0.747053    2.160816   -0.000556
     11          1           0       -1.747367    2.160251    0.000435
     12          6           0        2.435256    0.000041    0.000159
     13          1           0        2.791657   -0.024247    1.008766
     14          1           0        2.791876   -0.861328   -0.524975
     15          1           0        2.792234    0.885471   -0.483038
 ---------------------------------------------------------------------

 SCF Done:  E(RHF) =  -268.236050177     A.U. after   12 cycles

 The electronic state is 1-A.
 Alpha  occ. eigenvalues --  -11.18841 -11.18053 -11.18045 -11.17676 -11.17628
 Alpha  occ. eigenvalues --  -11.17612 -11.15938  -1.15256  -1.04027  -1.00898
 Alpha  occ. eigenvalues --   -0.93465  -0.82191  -0.79481  -0.69243  -0.63611
 Alpha  occ. eigenvalues --   -0.62061  -0.58450  -0.58246  -0.56031  -0.54379
 Alpha  occ. eigenvalues --   -0.49200  -0.48296  -0.47415  -0.33603  -0.32569
 Alpha virt. eigenvalues --    0.14840   0.15300   0.25395   0.29948   0.30893
 Alpha virt. eigenvalues --    0.33270   0.34454   0.35571   0.37097   0.37288
 Alpha virt. eigenvalues --    0.40294   0.43071   0.50964   0.52575   0.54147

 Mulliken charges:
               1
     1  C   -0.246243
     2  C   -0.226952
     3  C   -0.236698
     4  C   -0.062955
     5  C   -0.236823
     6  C   -0.226975
     7  H    0.233680
     8  H    0.235166
     9  H    0.231716
    10  H    0.231642
    11  H    0.235185
    12  C   -0.591501
    13  H    0.227874
    14  H    0.216710
    15  H    0.216173
 Sum of Mulliken charges =  -0.00000

 Dipole moment (field-independent basis, Debye):
    X=              0.3411    Y=             -0.0028    Z=              0.0297  Tot=              0.3424
 Quadrupole moment (field-independent basis, Debye-Ang):
   XX=            -38.0359   YY=            -38.1707   ZZ=            -47.7101
   XY=             -0.0048   XZ=              0.0431   YZ=             -0.0019

 Normal termination of Gaussian 16 at Mon Jun  9 17:06:17 2025.
