 Gaussian 16, Revision B.01,
 Gaussian 16:  EM64L-G16RevB.01 20-Dec-2017

 -----------------------------------------
 # opt freq am1 pop=full geom=connectivity
 -----------------------------------------

 -------------------------------------
 methyl_furan_isomer opt freq with AM1
 -------------------------------------
 Symbolic Z-matrix:
 Charge =  0 Multiplicity = 1

 SCF Done:  E(RAM1) =  0.811408788907E-01 A.U. after   15 cycles
 SCF Done:  E(RAM1) =  0.362396213816E-01 A.U. after   13 cycles
 SCF Done:  E(RAM1) =  0.744453538456E-02 A.U. after   12 cycles
 SCF Done:  E(RAM1) = -0.109777153656E-02 A.U. after   12 cycles
 SCF Done:  E(RAM1) = -0.169188820303E-02 A.U. after   11 cycles
 SCF Done:  E(RAM1) = -0.203391746501E-02 A.U. after   11 cycles
 SCF Done:  E(RAM1) = -0.204557187348E-02 A.U. after   10 cycles
 SCF Done:  E(RAM1) = -0.204530893714E-02 A.U. after   10 cycles
 SCF Done:  E(RAM1) = -0.205244451919E-02 A.U. after   10 cycles
 SCF Done:  E(RAM1) = -0.205369771297E-02 A.U. after   10 cycles
 SCF Done:  E(RAM1) = -0.205398572629E-02 A.U. after    9 cycles
 Optimization completed.
    -- Stationary point found.
 Normal termination of Gaussian 16 at Sat Jun 14 14:39:15 2025.

 -------------------------------------------------------------
 #N Geom=AllCheck Guess=TCheck SCRF=Check GenChk RAM1/ZDO Freq
 -------------------------------------------------------------

 Structure from the checkpoint file:  "meth_furan_isomer_opt.chk"
 -------------------------------------
 methyl_furan_isomer opt freq with AM1
 -------------------------------------
 Charge =  0 Multiplicity = 1

                         Standard orientation:
 ---------------------------------------------------------------------
 Center     Atomic      Atomic             Coordinates (Angstroms)
 Number     Number       Type             X           Y           Z
 ---------------------------------------------------------------------
      1          6           0       -1.376408    0.741147   -0.000284
      2          6           0       -0.098937    1.200904    0.000305
      3          6           0        0.808952    0.046970    0.000325
      4          6           0       -0.092512   -1.165082    0.000275
      5          8           0       -1.455767   -0.648411   -0.000198
      6          1           0       -2.350056    1.231026   -0.000444
      7          1           0        0.241138    2.233325    0.000643
      8          6           0        2.138966    0.044316   -0.000309
      9          1           0        0.013205   -1.787866    0.922100
     10          1           0        0.014072   -1.787601   -0.921731
     11          1           0        2.723601    0.972633   -0.000425
     12          1           0        2.723812   -0.883752   -0.000432
 ---------------------------------------------------------------------

 SCF Done:  E(RAM1) = -0.205398572641E-02 A.U. after    2 cycles

 The electronic state is 1-A.
 Alpha  occ. eigenvalues --   -1.49721  -1.26942  -1.12868  -1.00538  -0.81993
 Alpha  occ. eigenvalues --   -0.75130  -0.64101  -0.60798  -0.56508  -0.54943
 Alpha  occ. eigenvalues --   -0.50097  -0.49350  -0.46146  -0.44345  -0.42233
 Alpha  occ. eigenvalues --   -0.32199
 Alpha virt. eigenvalues --    0.01314   0.07235   0.10125   0.12273   0.13730
 Alpha virt. eigenvalues --    0.15188   0.15705   0.16210   0.16627   0.17676
 Alpha virt. eigenvalues --    0.19145   0.19866   0.21224   0.21855

 Mulliken charges:
               1
     1  C   -0.003488
     2  C   -0.247006
     3  C   -0.096253
     4  C   -0.010785
     5  O   -0.223797
     6  H    0.180269
     7  H    0.159992
     8  C   -0.214346
     9  H    0.108773
    10  H    0.108717
    11  H    0.121399
    12  H    0.116526
 Sum of Mulliken charges =  -0.00000

 Dipole moment (field-independent basis, Debye):
    X=              0.5987    Y=              0.3662    Z=              0.0001  Tot=              0.7018
 N-N= 1.378340553679D+02 E-N=-1.925061255245D+02  KE=-6.020784460640D+01
 Orbital energies and kinetic energies (alpha):
                                 1                 2
   1         O                -1.497208         -3.033663
   2         O                -1.269423         -2.667479
   3         O                -1.128679         -2.220429
   4         O                -1.005384         -2.116127
   5         O                -0.819935         -1.883308
   6         O                -0.751297         -1.838344
   7         O                -0.641011         -1.798721

  Exact polarizability:  84.698   4.084  45.411  -0.004   0.003  15.314
 Approx polarizability:  63.515   4.258  31.718  -0.002   0.002  10.156

                      1                      2                      3
                      A                      A                      A
 Frequencies --    166.9701               358.6963               358.7866
 Red. masses --      3.0219                 2.3413                 2.4271
 Frc consts  --      0.0496                 0.1775                 0.1841
 IR Inten    --      1.1017                 4.5087                19.8826

                      4                      5                      6
                      A                      A                      A
 Frequencies --    534.4125               616.6365               701.3466
 Red. masses --      1.6849                 1.2058                 5.5646
 Frc consts  --      0.2835                 0.2701                 1.6127
 IR Inten    --      0.2673                 0.8604                 0.2373

                      7                      8                      9
                      A                      A                      A
 Frequencies --    857.8222               878.6974               902.9948
 Red. masses --      1.2486                 5.8959                 1.5467
 Frc consts  --      0.5413                 2.6821                 0.7430
 IR Inten    --     64.5722                 2.7056                 0.0008

                     10                     11                     12
                      A                      A                      A
 Frequencies --    980.9379              1003.3703              1041.9113
 Red. masses --      1.4895                 1.5911                 1.4690
 Frc consts  --      0.8444                 0.9438                 0.9396
 IR Inten    --      1.2915                10.5659                45.0877

                     13                     14                     15
                      A                      A                      A
 Frequencies --   1045.6498              1120.8851              1171.8158
 Red. masses --      1.8890                 1.4277                 1.1065
 Frc consts  --      1.2169                 1.0568                 0.8952
 IR Inten    --      5.1695                 6.0980                 2.0836

                     16                     17                     18
                      A                      A                      A
 Frequencies --   1193.8625              1281.4464              1296.3067
 Red. masses --      2.3476                 2.3957                 1.3474
 Frc consts  --      1.9715                 2.3179                 1.3340
 IR Inten    --     26.7327                74.3613                14.4993

                     19                     20                     21
                      A                      A                      A
 Frequencies --   1375.7134              1399.2710              1416.4786
 Red. masses --      1.2006                 4.1609                 1.3063
 Frc consts  --      1.3388                 4.8000                 1.5443
 IR Inten    --      2.1275                16.3215                 7.7317

                     22                     23                     24
                      A                      A                      A
 Frequencies --   1467.8360              1749.2554              1934.6828
 Red. masses --      2.7883                 8.0352                 9.8628
 Frc consts  --      3.5396                14.4862                21.7505
 IR Inten    --     39.4849                98.3061                 3.8468

                     25                     26                     27
                      A                      A                      A
 Frequencies --   3065.6930              3119.4602              3181.9512
 Red. masses --      1.0932                 1.0461                 1.1047
 Frc consts  --      6.0537                 5.9977                 6.5900
 IR Inten    --      4.3247                 9.0053                11.0298

                     28                     29                     30
                      A                      A                      A
 Frequencies --   3219.4271              3266.4283              3280.8074
 Red. masses --      1.0531                 1.0812                 1.0930
 Frc consts  --      6.4308                 6.7970                 6.9319
 IR Inten    --     53.0093               100.3487                55.3633

 - Thermochemistry -
 -------------------
 Temperature   298.150 Kelvin.  Pressure   1.00000 Atm.
 Atom     1 has atomic number  6 and mass  12.00000

 Molecular mass:    82.04186 amu.
 Principal axes and moments of inertia in atomic units:
                           1         2         3
     Eigenvalues --   226.23707 506.45168 720.45310
           X            0.99963  -0.02729  -0.00001
           Y            0.02729   0.99963  -0.00000
           Z            0.00001  -0.00000   1.00000
 This molecule is an asymmetric top.
 Rotational symmetry number  1.
 Rotational temperatures (Kelvin)      0.38285     0.17102     0.12022
 Rotational constants (GHZ):           7.97721     3.56350     2.50501
 Zero-point vibrational energy     263116.0 (Joules/Mol)
                                   62.88622 (Kcal/Mol)
 Warning -- explicit consideration of   5 degrees of freedom as
           vibrations may cause significant error
 Vibrational temperatures:    240.23   516.08   516.21   768.90   887.20
          (Kelvin)           1009.08  1234.21  1264.25  1299.21  1411.35
                             1443.63  1499.08  1504.46  1612.70  1685.98
                             1717.70  1843.72  1865.10  1979.34  2013.24
                             2038.00  2111.89  2516.79  2783.58  4410.85
                             4488.21  4578.12  4632.04  4699.66  4720.35

 Zero-point correction=                           0.100216 (Hartree/Particle)
 Thermal correction to Energy=                    0.105255
 Thermal correction to Enthalpy=                  0.106200
 Thermal correction to Gibbs Free Energy=         0.071917
 Sum of electronic and zero-point Energies=              0.098162
 Sum of electronic and thermal Energies=                 0.103201
 Sum of electronic and thermal Enthalpies=               0.104146
 Sum of electronic and thermal Free Energies=            0.069863

                     E (Thermal)             CV                S
                      KCal/Mol        Cal/Mol-Kelvin    Cal/Mol-Kelvin
 Total                   66.049             18.432             72.154
 Electronic               0.000              0.000              0.000
 Translational            0.889              2.981             39.128
 Rotational               0.889              2.981             25.915
 Vibrational             64.271             12.470              7.111
 Vibration     1          0.624              1.883              2.469
 Vibration     2          0.734              1.557              1.128
 Vibration     3          0.734              1.557              1.127
 Vibration     4          0.889              1.174              0.577
 Vibration     5          0.976              0.997              0.422

 Optimization completed.
    -- Stationary point found.
 Normal termination of Gaussian 16 at Sat Jun 14 14:39:15 2025.
