 Gaussian 16, Revision B.01,
 Gaussian 16:  EM64L-G16RevB.01 20-Dec-2017

 --------------------------------------
 # hf/3-21g* pop=full geom=connectivity
 --------------------------------------

 -----------------------------------
 methyl_furan_isomer sp with HF3-31G
 -----------------------------------
 Symbolic Z-matrix:
 Charge =  0 Multiplicity = 1

                         Standard orientation:
 ---------------------------------------------------------------------
 Center     Atomic      Atomic             Coordinates (Angstroms)
 Number     Number       Type             X           Y           Z
 ---------------------------------------------------------------------
      1          6           0       -1.376408    0.741146   -0.000284
      2          6           0       -0.098937    1.200904    0.000305
      3          6           0        0.808952    0.046970    0.000325
      4          6           0       -0.092512   -1.165082    0.000275
      5          8           0       -1.455767   -0.648412   -0.000198
      6          1           0       -2.350056    1.231025   -0.000444
      7          1           0        0.241137    2.233325    0.000643
      8          6           0        2.138966    0.044317   -0.000309
      9          1           0        0.013206   -1.787866    0.922100
     10          1           0        0.014073   -1.787601   -0.921731
     11          1           0        2.723601    0.972634   -0.000425
     12          1           0        2.723812   -0.883751   -0.000432
 ---------------------------------------------------------------------

 SCF Done:  E(RHF) =  -266.146166017     A.U. after   14 cycles

 The electronic state is 1-A.
 Alpha  occ. eigenvalues --  -20.48198 -11.25776 -11.24137 -11.20037 -11.18005
 Alpha  occ. eigenvalues --  -11.16552  -1.40655  -1.09837  -1.01792  -0.93005
 Alpha  occ. eigenvalues --   -0.79352  -0.74887  -0.69433  -0.65705  -0.59876
 Alpha  occ. eigenvalues --   -0.58865  -0.56501  -0.52965  -0.50119  -0.47497
 Alpha  occ. eigenvalues --   -0.43235  -0.29571
 Alpha virt. eigenvalues --    0.12952   0.25147   0.28188   0.28742   0.29867
 Alpha virt. eigenvalues --    0.31282   0.33625   0.36698   0.38514   0.41842
 Alpha virt. eigenvalues --    0.48440   0.56935   0.58434   0.67994   0.90038

 Mulliken charges:
               1
     1  C    0.187403
     2  C   -0.340465
     3  C   -0.098580
     4  C   -0.067731
     5  O   -0.653375
     6  H    0.273500
     7  H    0.248443
     8  C   -0.441499
     9  H    0.238442
    10  H    0.238432
    11  H    0.211060
    12  H    0.204370
 Sum of Mulliken charges =  -0.00000

 Dipole moment (field-independent basis, Debye):
    X=              0.6361    Y=              0.6030    Z=              0.0004  Tot=              0.8765
 Quadrupole moment (field-independent basis, Debye-Ang):
   XX=            -35.7451   YY=            -31.9137   ZZ=            -38.9398
   XY=             -3.8725   XZ=             -0.0005   YZ=             -0.0008

 Normal termination of Gaussian 16 at Sat Jun 14 14:40:30 2025.
