 Gaussian 16, Revision B.01,
 Gaussian 16:  EM64L-G16RevB.01 20-Dec-2017

 --------------------------------------
 # hf/3-21g* pop=full geom=connectivity
 --------------------------------------

 -----------------------------
 methyl_furan sp with HF3-21G*
 -----------------------------
 Symbolic Z-matrix:
 Charge =  0 Multiplicity = 1

                         Standard orientation:
 ---------------------------------------------------------------------
 Center     Atomic      Atomic             Coordinates (Angstroms)
 Number     Number       Type             X           Y           Z
 ---------------------------------------------------------------------
      1          6           0        1.468233    0.685974   -0.000003
      2          6           0        0.172836    1.156573    0.000006
      3          6           0       -0.693584   -0.008679   -0.000001
      4          6           0        0.138420   -1.112756   -0.000002
      5          8           0        1.473556   -0.709684   -0.000001
      6          1           0        2.454773    1.138694    0.000010
      7          1           0       -0.162510    2.189178   -0.000014
      8          1           0       -0.009181   -2.187799    0.000017
      9          6           0       -2.156159    0.019222   -0.000000
     10          1           0       -2.535979    0.555614    0.906219
     11          1           0       -2.535973    0.555969   -0.906015
     12          1           0       -2.578050   -1.016187   -0.000205
 ---------------------------------------------------------------------

 SCF Done:  E(RHF) =  -266.164056518     A.U. after   13 cycles

 The electronic state is 1-A.
 Alpha  occ. eigenvalues --  -20.52184 -11.24320 -11.23463 -11.18975 -11.18248
 Alpha  occ. eigenvalues --  -11.17913  -1.43794  -1.09854  -1.00771  -0.94064
 Alpha  occ. eigenvalues --   -0.78740  -0.76307  -0.70256  -0.61706  -0.59602
 Alpha  occ. eigenvalues --   -0.58586  -0.56431  -0.56112  -0.53659  -0.49797
 Alpha  occ. eigenvalues --   -0.37885  -0.31452
 Alpha virt. eigenvalues --    0.16470   0.23011   0.28126   0.29511   0.30930
 Alpha virt. eigenvalues --    0.31843   0.33359   0.36574   0.39527   0.41037
 Alpha virt. eigenvalues --    0.47373   0.56086   0.63939   0.69275   0.89800

 Mulliken charges:
               1
     1  C    0.128931
     2  C   -0.316379
     3  C   -0.143170
     4  C    0.143236
     5  O   -0.634982
     6  H    0.267700
     7  H    0.248046
     8  H    0.266475
     9  C   -0.602710
    10  H    0.216715
    11  H    0.216710
    12  H    0.209427
 Sum of Mulliken charges =  -0.00000

 Dipole moment (field-independent basis, Debye):
    X=             -1.1641    Y=              0.7835    Z=              0.0000  Tot=              1.4032
 Quadrupole moment (field-independent basis, Debye-Ang):
   XX=            -34.4425   YY=            -31.8971   ZZ=            -39.2914
   XY=              3.1024   XZ=              0.0000   YZ=             -0.0001

 Normal termination of Gaussian 16 at Sat Jun 14 14:35:22 2025.
