 Gaussian 16, Revision B.01,
 Gaussian 16:  EM64L-G16RevB.01 20-Dec-2017

 -----------------------------------------
 # opt freq am1 pop=full geom=connectivity
 -----------------------------------------

 ------------------------------
 methyl_furan opt freq with AM1
 ------------------------------
 Symbolic Z-matrix:
 Charge =  0 Multiplicity = 1

 SCF Done:  E(RAM1) =  0.236002517233E-01 A.U. after   13 cycles
 SCF Done:  E(RAM1) = -0.273376145327E-02 A.U. after   13 cycles
 SCF Done:  E(RAM1) = -0.762106308676E-02 A.U. after   13 cycles
 SCF Done:  E(RAM1) = -0.814240250364E-02 A.U. after   12 cycles
 SCF Done:  E(RAM1) = -0.832644506411E-02 A.U. after   12 cycles
 SCF Done:  E(RAM1) = -0.834524827121E-02 A.U. after   11 cycles
 SCF Done:  E(RAM1) = -0.835802667459E-02 A.U. after   11 cycles
 SCF Done:  E(RAM1) = -0.837241815040E-02 A.U. after   11 cycles
 SCF Done:  E(RAM1) = -0.839394994071E-02 A.U. after   12 cycles
 SCF Done:  E(RAM1) = -0.841216916345E-02 A.U. after   11 cycles
 SCF Done:  E(RAM1) = -0.843455814132E-02 A.U. after   11 cycles
 SCF Done:  E(RAM1) = -0.843595660365E-02 A.U. after   11 cycles
 SCF Done:  E(RAM1) = -0.843615512457E-02 A.U. after   10 cycles
 SCF Done:  E(RAM1) = -0.843618612376E-02 A.U. after    9 cycles
 SCF Done:  E(RAM1) = -0.843619067260E-02 A.U. after    8 cycles
 Optimization completed.
    -- Stationary point found.
 Normal termination of Gaussian 16 at Sat Jun 14 14:34:02 2025.

 -------------------------------------------------------------
 #N Geom=AllCheck Guess=TCheck SCRF=Check GenChk RAM1/ZDO Freq
 -------------------------------------------------------------

 Structure from the checkpoint file:  "meth_furan_opt.chk"
 ------------------------------
 methyl_furan opt freq with AM1
 ------------------------------
 Charge =  0 Multiplicity = 1

                         Standard orientation:
 ---------------------------------------------------------------------
 Center     Atomic      Atomic             Coordinates (Angstroms)
 Number     Number       Type             X           Y           Z
 ---------------------------------------------------------------------
      1          6           0        1.468233    0.685974   -0.000003
      2          6           0        0.172836    1.156573    0.000006
      3          6           0       -0.693584   -0.008679   -0.000001
      4          6           0        0.138420   -1.112756   -0.000002
      5          8           0        1.473556   -0.709684   -0.000001
      6          1           0        2.454773    1.138694    0.000010
      7          1           0       -0.162510    2.189178   -0.000014
      8          1           0       -0.009181   -2.187799    0.000017
      9          6           0       -2.156159    0.019222   -0.000000
     10          1           0       -2.535979    0.555614    0.906219
     11          1           0       -2.535973    0.555969   -0.906015
     12          1           0       -2.578050   -1.016187   -0.000205
 ---------------------------------------------------------------------

 SCF Done:  E(RAM1) = -0.843619067265E-02 A.U. after    2 cycles

 The electronic state is 1-A.
 Alpha  occ. eigenvalues --   -1.52773  -1.27182  -1.12016  -1.01228  -0.81739
 Alpha  occ. eigenvalues --   -0.76749  -0.65452  -0.58819  -0.55906  -0.53377
 Alpha  occ. eigenvalues --   -0.51233  -0.50469  -0.49424  -0.45548  -0.37702
 Alpha  occ. eigenvalues --   -0.33689
 Alpha virt. eigenvalues --    0.02743   0.05932   0.09890   0.13578   0.13915
 Alpha virt. eigenvalues --    0.15073   0.16297   0.16697   0.17539   0.17723
 Alpha virt. eigenvalues --    0.18481   0.19403   0.21022   0.22085

 Mulliken charges:
               1
     1  C   -0.094906
     2  C   -0.197045
     3  C   -0.140962
     4  C   -0.098328
     5  O   -0.106537
     6  H    0.188615
     7  H    0.160905
     8  H    0.189388
     9  C   -0.150484
    10  H    0.085034
    11  H    0.085034
    12  H    0.079284
 Sum of Mulliken charges =  -0.00000

 Dipole moment (field-independent basis, Debye):
    X=             -0.6119    Y=              0.3585    Z=              0.0000  Tot=              0.7092
 N-N= 1.374956731073D+02 E-N=-1.918512591433D+02  KE=-6.009082561776D+01
 Orbital energies and kinetic energies (alpha):
                                 1                 2
   1         O                -1.527728         -3.105557
   2         O                -1.271823         -2.631429
   3         O                -1.120156         -2.209467
   4         O                -1.012283         -2.102949
   5         O                -0.817393         -1.943410
   6         O                -0.767488         -1.874342
   7         O                -0.654520         -1.904948

  Exact polarizability:  59.659  -2.129  53.987  -0.000   0.000  15.816
 Approx polarizability:  47.691  -4.953  44.471  -0.000   0.000  10.452

                      1                      2                      3
                      A                      A                      A
 Frequencies --     45.3745               252.4233               330.3471
 Red. masses --      1.0536                 3.0007                 2.6029
 Frc consts  --      0.0013                 0.1127                 0.1674
 IR Inten    --      0.0165                 1.6565                 0.7181

                      4                      5                      6
                      A                      A                      A
 Frequencies --    510.4840               586.1122               730.0178
 Red. masses --      2.9710                 2.0719                 4.5849
 Frc consts  --      0.4562                 0.4193                 1.4396
 IR Inten    --     12.9330                11.6153                 1.6549

                      7                      8                      9
                      A                      A                      A
 Frequencies --    825.5209               837.4658               896.4132
 Red. masses --      1.3843                 1.4041                 1.5236
 Frc consts  --      0.5558                 0.5802                 0.7214
 IR Inten    --      1.6943                87.7265                 5.9013

                     10                     11                     12
                      A                      A                      A
 Frequencies --    918.4349              1031.5135              1068.0729
 Red. masses --      5.1893                 1.3172                 1.4702
 Frc consts  --      2.5790                 0.8258                 0.9882
 IR Inten    --      7.7957                 2.5376                 1.8018

                     13                     14                     15
                      A                      A                      A
 Frequencies --   1090.7367              1131.5563              1200.5133
 Red. masses --      1.3524                 1.3724                 2.4939
 Frc consts  --      0.9480                 1.0353                 2.1177
 IR Inten    --     12.6768                 2.0344                26.1788

                     16                     17                     18
                      A                      A                      A
 Frequencies --   1228.1997              1363.7793              1379.6698
 Red. masses --      1.2596                 5.9306                 1.0979
 Frc consts  --      1.1195                 6.4989                 1.2313
 IR Inten    --      3.2283                 6.6504                 0.6710

                     19                     20                     21
                      A                      A                      A
 Frequencies --   1381.0016              1414.7381              1457.2282
 Red. masses --      1.0693                 1.5550                 2.7841
 Frc consts  --      1.2015                 1.8338                 3.4833
 IR Inten    --      2.1258                15.1732                17.5655

                     22                     23                     24
                      A                      A                      A
 Frequencies --   1506.8036              1657.2921              1787.9577
 Red. masses --      7.4246                 7.1189                 9.3433
 Frc consts  --      9.9320                11.5203                17.5980
 IR Inten    --      3.2925                 8.8829                 3.8202

                     25                     26                     27
                      A                      A                      A
 Frequencies --   3041.9355              3053.8402              3145.2836
 Red. masses --      1.0893                 1.0903                 1.0284
 Frc consts  --      5.9385                 5.9907                 5.9944
 IR Inten    --      1.7551                 1.7312                 0.7392

                     28                     29                     30
                      A                      A                      A
 Frequencies --   3283.8233              3291.9976              3301.2875
 Red. masses --      1.0829                 1.0849                 1.0963
 Frc consts  --      6.8804                 6.9275                 7.0397
 IR Inten    --     72.2335               172.4612                26.6426

 - Thermochemistry -
 -------------------
 Temperature   298.150 Kelvin.  Pressure   1.00000 Atm.
 Atom     1 has atomic number  6 and mass  12.00000

 Molecular mass:    82.04186 amu.
 Principal axes and moments of inertia in atomic units:
                           1         2         3
     Eigenvalues --   210.07917 535.20020 733.45953
           X            0.99972   0.02371   0.00000
           Y           -0.02371   0.99972  -0.00000
           Z           -0.00000   0.00000   1.00000
 This molecule is an asymmetric top.
 Rotational symmetry number  1.
 Rotational temperatures (Kelvin)      0.41229     0.16183     0.11809
 Rotational constants (GHZ):           8.59077     3.37209     2.46059
 Zero-point vibrational energy     261682.1 (Joules/Mol)
                                   62.54351 (Kcal/Mol)
 Warning -- explicit consideration of   5 degrees of freedom as
           vibrations may cause significant error
 Vibrational temperatures:     65.28   363.18   475.30   734.47   843.28
          (Kelvin)           1050.33  1187.74  1204.93  1289.74  1321.42
                             1484.12  1536.72  1569.33  1628.06  1727.27
                             1767.11  1962.17  1985.04  1986.95  2035.49
                             2096.63  2167.95  2384.47  2572.47  4376.67
                             4393.79  4525.36  4724.69  4736.45  4749.82

 Zero-point correction=                           0.099669 (Hartree/Particle)
 Thermal correction to Energy=                    0.105130
 Thermal correction to Enthalpy=                  0.106074
 Thermal correction to Gibbs Free Energy=         0.070200
 Sum of electronic and zero-point Energies=              0.091233
 Sum of electronic and thermal Energies=                 0.096694
 Sum of electronic and thermal Enthalpies=               0.097638
 Sum of electronic and thermal Free Energies=            0.061764

                     E (Thermal)             CV                S
                      KCal/Mol        Cal/Mol-Kelvin    Cal/Mol-Kelvin
 Total                   65.970             18.819             75.503
 Electronic               0.000              0.000              0.000
 Translational            0.889              2.981             39.128
 Rotational               0.889              2.981             25.914
 Vibrational             64.193             12.857             10.461
 Vibration     1          0.595              1.979              5.009
 Vibration     2          0.664              1.759              1.714
 Vibration     3          0.713              1.615              1.258
 Vibration     4          0.866              1.227              0.632
 Vibration     5          0.943              1.061              0.474

 Optimization completed.
    -- Stationary point found.
 Normal termination of Gaussian 16 at Sat Jun 14 14:34:02 2025.
