 Gaussian 16, Revision B.01,
 Gaussian 16:  EM64L-G16RevB.01 20-Dec-2017

 -------------------------------------
 # opt freq hf/3-21g geom=connectivity
 -------------------------------------

 ------------
 Optimisation
 ------------
 Symbolic Z-matrix:
 Charge =  0 Multiplicity = 1

 SCF Done:  E(RHF) =  -344.129612781     A.U. after   21 cycles
 SCF Done:  E(RHF) =  -344.232640156     A.U. after   17 cycles
 SCF Done:  E(RHF) =  -344.358303311     A.U. after   17 cycles
 SCF Done:  E(RHF) =  -344.451179064     A.U. after   14 cycles
 SCF Done:  E(RHF) =  -344.542285270     A.U. after   15 cycles
 SCF Done:  E(RHF) =  -344.562993847     A.U. after   14 cycles
 SCF Done:  E(RHF) =  -344.571362298     A.U. after   14 cycles
 SCF Done:  E(RHF) =  -344.575794909     A.U. after   13 cycles
 SCF Done:  E(RHF) =  -344.573694284     A.U. after   14 cycles
 SCF Done:  E(RHF) =  -344.579600364     A.U. after   14 cycles
 SCF Done:  E(RHF) =  -344.583352389     A.U. after   10 cycles
 SCF Done:  E(RHF) =  -344.583361023     A.U. after   11 cycles
 SCF Done:  E(RHF) =  -344.583369338     A.U. after   12 cycles
 SCF Done:  E(RHF) =  -344.583376730     A.U. after   11 cycles
 SCF Done:  E(RHF) =  -344.583381552     A.U. after   11 cycles
 SCF Done:  E(RHF) =  -344.583381891     A.U. after    9 cycles
 SCF Done:  E(RHF) =  -344.583382305     A.U. after    9 cycles
 SCF Done:  E(RHF) =  -344.583382330     A.U. after    9 cycles
 SCF Done:  E(RHF) =  -344.583382346     A.U. after    8 cycles
 Optimization completed.
    -- Stationary point found.
 Normal termination of Gaussian 16 at Mon Jun  9 21:15:26 2025.

 --------------------------------------------------------------
 #N Geom=AllCheck Guess=TCheck SCRF=Check GenChk RHF/3-21G Freq
 --------------------------------------------------------------

 Structure from the checkpoint file:  "meth_cyclooctatetraene_isomer.chk"
 ------------
 Optimisation
 ------------
 Charge =  0 Multiplicity = 1

                         Standard orientation:
 ---------------------------------------------------------------------
 Center     Atomic      Atomic             Coordinates (Angstroms)
 Number     Number       Type             X           Y           Z
 ---------------------------------------------------------------------
      1          6           0       -2.005134   -0.803699   -0.085595
      2          6           0       -0.760353   -1.528592    0.301171
      3          6           0       -0.255012    1.306919    0.626888
      4          6           0        0.563012   -1.316618    0.318881
      5          6           0        1.235559    1.240535    0.555568
      6          6           0        1.492709   -0.181561   -0.002687
      7          1           0       -2.862032   -1.454425   -0.093279
      8          1           0       -0.687208    0.930114    1.534453
      9          1           0        1.699521    1.341661    1.529087
     10          1           0       -1.015157   -2.534898    0.590082
     11          1           0        1.128209   -2.192320    0.590741
     12          6           0       -2.186859    0.460495   -0.461407
     13          1           0       -3.145377    0.788441   -0.816999
     14          6           0       -1.006379    1.332641   -0.456399
     15          1           0       -0.637547    1.708144   -1.395175
     16          6           0        2.560223   -0.426544   -0.743978
     17          1           0        3.269108    0.343257   -0.984145
     18          1           0        2.757655   -1.400547   -1.150264
     19          1           0        1.666227    1.969113   -0.119156
 ---------------------------------------------------------------------

 SCF Done:  E(RHF) =  -344.583382346     A.U. after    1 cycles

 The electronic state is 1-A.
 Alpha  occ. eigenvalues --  -11.19391 -11.18438 -11.18297 -11.18138 -11.17981
 Alpha  occ. eigenvalues --  -11.17655 -11.16873 -11.16515 -11.15617  -1.14080
 Alpha  occ. eigenvalues --   -1.08354  -1.05592  -0.98610  -0.93140  -0.84703
 Alpha  occ. eigenvalues --   -0.78148  -0.74603  -0.69330  -0.66516  -0.64292
 Alpha  occ. eigenvalues --   -0.63264  -0.59495  -0.57209  -0.56628  -0.54253
 Alpha  occ. eigenvalues --   -0.51161  -0.48075  -0.46584  -0.43607  -0.37762
 Alpha  occ. eigenvalues --   -0.35401  -0.29487
 Alpha virt. eigenvalues --    0.10067   0.16350   0.20093   0.26649   0.28818
 Alpha virt. eigenvalues --    0.29774   0.31287   0.31376   0.34227   0.35350
 Alpha virt. eigenvalues --    0.37322   0.37892   0.38952   0.39306   0.44247

 Mulliken charges:
               1
     1  C   -0.206837
     2  C   -0.228689
     3  C   -0.200325
     4  C   -0.195878
     5  C   -0.493665
     6  C   -0.057381
     7  H    0.226564
     8  H    0.243662
     9  H    0.235461
    10  H    0.220870
    11  H    0.233348
    12  C   -0.257939
    13  H    0.234106
    14  C   -0.231486
    15  H    0.231260
    16  C   -0.407215
    17  H    0.206680
    18  H    0.210857
    19  H    0.236607
 Sum of Mulliken charges =   0.00000

 Dipole moment (field-independent basis, Debye):
    X=              0.1042    Y=             -0.3240    Z=              0.0019  Tot=              0.3404
 Quadrupole moment (field-independent basis, Debye-Ang):
   XX=            -51.6649   YY=            -53.5807   ZZ=            -56.4223
   XY=              2.0865   XZ=              0.2864   YZ=             -1.8173

  Exact polarizability: 116.018  -0.442  79.411  -1.726  -4.877  54.732
 Approx polarizability:  95.601   0.529  71.105   0.499  -6.330  53.637

                      1                      2                      3
                      A                      A                      A
 Frequencies --     38.6263               183.7998               265.5795
 Red. masses --      3.1223                 2.5011                 2.5529
 Frc consts  --      0.0027                 0.0498                 0.1061
 IR Inten    --      0.4267                 0.4804                 0.2716
 Raman Activ --     17.1718                 5.8651                 8.6285

                      4                      5                      6
                      A                      A                      A
 Frequencies --    323.3692               383.8495               404.8594
 Red. masses --      3.0779                 2.4706                 3.7890
 Frc consts  --      0.1896                 0.2145                 0.3659
 IR Inten    --      1.1369                 3.8247                 6.2782
 Raman Activ --      3.3646                 3.2575                 1.2300

                      7                      8                      9
                      A                      A                      A
 Frequencies --    432.5991               482.3271               568.1534
 Red. masses --      2.3742                 2.9294                 2.7526
 Frc consts  --      0.2618                 0.4015                 0.5235
 IR Inten    --      1.8858                 1.5780                17.9669
 Raman Activ --      1.7852                 5.4375                10.8765

                     10                     11                     12
                      A                      A                      A
 Frequencies --    666.7566               695.2773               763.5641
 Red. masses --      2.8500                 2.5936                 1.5073
 Frc consts  --      0.7465                 0.7387                 0.5178
 IR Inten    --      0.5205                 5.9075                12.3610
 Raman Activ --     11.9601                 6.0640                 6.7705

                     13                     14                     15
                      A                      A                      A
 Frequencies --    808.3481               835.4535               893.4167
 Red. masses --      3.8579                 1.4442                 2.9474
 Frc consts  --      1.4852                 0.5939                 1.3861
 IR Inten    --     17.1874                20.2678                13.8087
 Raman Activ --      4.3032                13.5369                 8.1500

                     16                     17                     18
                      A                      A                      A
 Frequencies --    923.2137               934.4929               995.8898
 Red. masses --      1.5599                 2.7416                 2.1382
 Frc consts  --      0.7833                 1.4106                 1.2495
 IR Inten    --      7.4785                20.8649                16.6340
 Raman Activ --     22.5131                11.3644                 7.6069

                     19                     20                     21
                      A                      A                      A
 Frequencies --   1012.0206              1051.0037              1092.4271
 Red. masses --      2.3108                 1.9312                 1.4560
 Frc consts  --      1.3944                 1.2569                 1.0238
 IR Inten    --     10.1768                 1.8754                66.1925
 Raman Activ --     10.2001                 2.3683                 3.0732

                     22                     23                     24
                      A                      A                      A
 Frequencies --   1107.1297              1145.3404              1164.5446
 Red. masses --      1.4344                 1.6472                 1.9474
 Frc consts  --      1.0359                 1.2731                 1.5560
 IR Inten    --     39.5098                13.2992                14.2196
 Raman Activ --      9.8119                 3.3165                 3.1155

                     25                     26                     27
                      A                      A                      A
 Frequencies --   1166.7870              1179.0338              1299.7971
 Red. masses --      1.3938                 1.5497                 1.3306
 Frc consts  --      1.1179                 1.2693                 1.3245
 IR Inten    --      0.2124                 2.6263                 0.8126
 Raman Activ --      8.4031                11.0622                 9.6844

                     28                     29                     30
                      A                      A                      A
 Frequencies --   1344.2315              1369.4804              1439.5130
 Red. masses --      1.5527                 1.2454                 1.3520
 Frc consts  --      1.6530                 1.3761                 1.6507
 IR Inten    --      0.0440                 1.3014                 1.2691
 Raman Activ --      7.9727                24.3824                12.4098

                     31                     32                     33
                      A                      A                      A
 Frequencies --   1458.6354              1498.0783              1525.3589
 Red. masses --      1.3066                 1.2193                 1.1288
 Frc consts  --      1.6378                 1.6122                 1.5474
 IR Inten    --      7.8722                 0.2187                 1.8104
 Raman Activ --      5.9958                11.7844                37.0077

                     34                     35                     36
                      A                      A                      A
 Frequencies --   1577.9597              1592.1207              1627.8902
 Red. masses --      1.4026                 1.2943                 1.2618
 Frc consts  --      2.0577                 1.9330                 1.9701
 IR Inten    --      2.1147                 1.4760                 2.8828
 Raman Activ --      5.4195                37.5258                18.8135

                     37                     38                     39
                      A                      A                      A
 Frequencies --   1639.5053              1752.1474              1805.9413
 Red. masses --      1.1055                 6.8072                 4.1081
 Frc consts  --      1.7508                12.3128                 7.8941
 IR Inten    --      5.4061                 2.6025                10.9453
 Raman Activ --     13.9642               245.3338                58.7263

                     40                     41                     42
                      A                      A                      A
 Frequencies --   1833.2675              1856.3820              3225.7407
 Red. masses --      4.4764                 5.4110                 1.0577
 Frc consts  --      8.8639                10.9866                 6.4844
 IR Inten    --     12.3794                 5.9535                28.8894
 Raman Activ --    114.8307                19.4741                96.6617

                     43                     44                     45
                      A                      A                      A
 Frequencies --   3271.1873              3273.8718              3301.3034
 Red. masses --      1.1052                 1.0828                 1.0877
 Frc consts  --      6.9677                 6.8381                 6.9842
 IR Inten    --      8.8968                 4.0877                16.6724
 Raman Activ --     62.2484                27.5951                81.2608

                     46                     47                     48
                      A                      A                      A
 Frequencies --   3312.8921              3313.8248              3317.1515
 Red. masses --      1.0768                 1.0767                 1.0863
 Frc consts  --      6.9631                 6.9665                 7.0427
 IR Inten    --      4.4165                12.5608                38.6944
 Raman Activ --     50.3121               143.2511               129.5713

                     49                     50                     51
                      A                      A                      A
 Frequencies --   3349.9329              3352.6017              3386.6369
 Red. masses --      1.0959                 1.0893                 1.1146
 Frc consts  --      7.2458                 7.2138                 7.5318
 IR Inten    --     41.9410                 8.9529                13.9025
 Raman Activ --    244.7001                38.2493                83.3665

 - Thermochemistry -
 -------------------
 Temperature   298.150 Kelvin.  Pressure   1.00000 Atm.
 Atom     1 has atomic number  6 and mass  12.00000

 Molecular mass:   118.07825 amu.
 Principal axes and moments of inertia in atomic units:
                           1         2         3
     Eigenvalues --   644.750021183.861341593.68274
           X            0.99981   0.01876  -0.00480
           Y           -0.01880   0.99977  -0.01018
           Z            0.00461   0.01027   0.99994
 This molecule is an asymmetric top.
 Rotational symmetry number  1.
 Warning -- assumption of classical behavior for rotation
           may cause significant error
 Rotational temperatures (Kelvin)      0.13434     0.07316     0.05435
 Rotational constants (GHZ):           2.79913     1.52445     1.13243
 Zero-point vibrational energy     456036.3 (Joules/Mol)
                                  108.99529 (Kcal/Mol)
 Warning -- explicit consideration of   9 degrees of freedom as
           vibrations may cause significant error
 Vibrational temperatures:     55.57   264.45   382.11   465.26   552.27
          (Kelvin)            582.50   622.41   693.96   817.45   959.31
                             1000.35  1098.60  1163.03  1202.03  1285.43
                             1328.30  1344.53  1432.86  1456.07  1512.16
                             1571.76  1592.91  1647.89  1675.52  1678.75
                             1696.37  1870.12  1934.05  1970.38  2071.14
                             2098.65  2155.40  2194.65  2270.33  2290.71
                             2342.17  2358.88  2520.95  2598.35  2637.66
                             2670.92  4641.12  4706.51  4710.37  4749.84
                             4766.51  4767.85  4772.64  4819.81  4823.65
                             4872.62

 Zero-point correction=                           0.173695 (Hartree/Particle)
 Thermal correction to Energy=                    0.181081
 Thermal correction to Enthalpy=                  0.182025
 Thermal correction to Gibbs Free Energy=         0.141268
 Sum of electronic and zero-point Energies=           -344.409687
 Sum of electronic and thermal Energies=              -344.402301
 Sum of electronic and thermal Enthalpies=            -344.401357
 Sum of electronic and thermal Free Energies=         -344.442115

                     E (Thermal)             CV                S
                      KCal/Mol        Cal/Mol-Kelvin    Cal/Mol-Kelvin
 Total                  113.630             28.601             85.782
 Electronic               0.000              0.000              0.000
 Translational            0.889              2.981             40.213
 Rotational               0.889              2.981             28.588
 Vibrational            111.853             22.639             16.980
 Vibration     1          0.594              1.981              5.328
 Vibration     2          0.631              1.862              2.289
 Vibration     3          0.671              1.736              1.625
 Vibration     4          0.708              1.629              1.293
 Vibration     5          0.753              1.505              1.024
 Vibration     6          0.770              1.460              0.945
 Vibration     7          0.793              1.399              0.850
 Vibration     8          0.839              1.289              0.704
 Vibration     9          0.924              1.100              0.508

 Optimization completed.
    -- Stationary point found.
 Normal termination of Gaussian 16 at Mon Jun  9 21:15:34 2025.
