 Gaussian 16, Revision B.01,
 Gaussian 16:  EM64L-G16RevB.01 20-Dec-2017

 -------------------------------------
 # hf/3-21g pop=full geom=connectivity
 -------------------------------------

 -------------------
 Title Card Required
 -------------------
 Symbolic Z-matrix:
 Charge =  0 Multiplicity = 1

                         Standard orientation:
 ---------------------------------------------------------------------
 Center     Atomic      Atomic             Coordinates (Angstroms)
 Number     Number       Type             X           Y           Z
 ---------------------------------------------------------------------
      1          5           0        0.000024   -0.000034   -0.081323
      2          1           0        1.124905   -0.350985    0.135559
      3          1           0       -0.866568   -0.798511    0.135542
      4          1           0       -0.258457    1.149667    0.135515
 ---------------------------------------------------------------------

 SCF Done:  E(RHF) =  -26.2262123889     A.U. after    8 cycles

 The electronic state is 1-A.
 Alpha  occ. eigenvalues --   -7.57920  -0.70593  -0.49251  -0.49246
 Alpha virt. eigenvalues --    0.06637   0.31619   0.31624   0.36002   0.60036
 Alpha virt. eigenvalues --    0.60038   0.67709   0.79430   1.37520   1.41367
 Alpha virt. eigenvalues --    1.41375

 Mulliken charges:
               1
     1  B    0.102248
     2  H   -0.034078
     3  H   -0.034082
     4  H   -0.034088
 Sum of Mulliken charges =  -0.00000

 Dipole moment (field-independent basis, Debye):
    X=              0.0001    Y=             -0.0002    Z=             -0.6052  Tot=              0.6052
 Quadrupole moment (field-independent basis, Debye-Ang):
   XX=             -9.7776   YY=             -9.7781   ZZ=             -7.1587
   XY=              0.0000   XZ=             -0.0001   YZ=              0.0001

 Normal termination of Gaussian 16 at Tue Jun 17 15:46:13 2025.
