 Gaussian 16, Revision B.01,
 Gaussian 16:  EM64L-G16RevB.01 20-Dec-2017

 -------------------------------------
 # hf/3-21g pop=full geom=connectivity
 -------------------------------------

 -------------------
 Title Card Required
 -------------------
 Symbolic Z-matrix:
 Charge =  0 Multiplicity = 1

                         Standard orientation:
 ---------------------------------------------------------------------
 Center     Atomic      Atomic             Coordinates (Angstroms)
 Number     Number       Type             X           Y           Z
 ---------------------------------------------------------------------
      1         15           0       -0.631054    0.000003   -0.000023
      2          1           0       -1.278292   -1.044631   -0.685245
      3          1           0       -1.278452    1.115829   -0.561771
      4          1           0       -1.277982   -0.071260    1.247408
      5          5           0        1.581244   -0.000011    0.000027
      6          1           0        1.798038   -1.052887    0.529190
      7          1           0        1.798130    0.984847    0.647014
      8          1           0        1.798149    0.068115   -1.176389
 ---------------------------------------------------------------------

 SCF Done:  E(RHF) =  -366.955196988     A.U. after   10 cycles

 The electronic state is 1-A.
 Alpha  occ. eigenvalues --  -79.43264  -7.51068  -7.50915  -5.39377  -5.39377
 Alpha  occ. eigenvalues --   -5.39256  -0.92480  -0.68525  -0.57782  -0.57781
 Alpha  occ. eigenvalues --   -0.44389  -0.44384  -0.42449
 Alpha virt. eigenvalues --    0.16556   0.16558   0.19659   0.23193   0.34874
 Alpha virt. eigenvalues --    0.34881   0.38197   0.57458   0.57458   0.58926
 Alpha virt. eigenvalues --    0.67379   0.67380   0.70104   0.76393   1.17644

 Mulliken charges:
               1
     1  P    0.242088
     2  H    0.008101
     3  H    0.008100
     4  H    0.008099
     5  B   -0.175701
     6  H   -0.030239
     7  H   -0.030229
     8  H   -0.030219
 Sum of Mulliken charges =  -0.00000

 Dipole moment (field-independent basis, Debye):
    X=             -4.1347    Y=             -0.0001    Z=              0.0001  Tot=              4.1347
 Quadrupole moment (field-independent basis, Debye-Ang):
   XX=            -28.2667   YY=            -24.7370   ZZ=            -24.7376
   XY=             -0.0002   XZ=              0.0007   YZ=              0.0000

 Normal termination of Gaussian 16 at Tue Jun 17 15:39:54 2025.
