 Gaussian 16, Revision B.01,
 Gaussian 16:  EM64L-G16RevB.01 20-Dec-2017

 ----------------------------------------------
 # opt freq hf/3-21g pop=full geom=connectivity
 ----------------------------------------------

 -------------------
 Title Card Required
 -------------------
 Symbolic Z-matrix:
 Charge =  0 Multiplicity = 1

 SCF Done:  E(RHF) =  -366.833716569     A.U. after   12 cycles
 SCF Done:  E(RHF) =  -366.881921566     A.U. after   11 cycles
 SCF Done:  E(RHF) =  -366.933500481     A.U. after   12 cycles
 SCF Done:  E(RHF) =  -366.939795348     A.U. after   10 cycles
 SCF Done:  E(RHF) =  -366.943267565     A.U. after   10 cycles
 SCF Done:  E(RHF) =  -366.945990897     A.U. after   11 cycles
 SCF Done:  E(RHF) =  -366.946587487     A.U. after   10 cycles
 SCF Done:  E(RHF) =  -366.947207225     A.U. after   10 cycles
 SCF Done:  E(RHF) =  -366.947898062     A.U. after   10 cycles
 SCF Done:  E(RHF) =  -366.948348315     A.U. after   10 cycles
 SCF Done:  E(RHF) =  -366.954673759     A.U. after    9 cycles
 SCF Done:  E(RHF) =  -366.954859416     A.U. after   10 cycles
 SCF Done:  E(RHF) =  -366.954999374     A.U. after    9 cycles
 SCF Done:  E(RHF) =  -366.955019422     A.U. after   10 cycles
 SCF Done:  E(RHF) =  -366.955173894     A.U. after    9 cycles
 SCF Done:  E(RHF) =  -366.955194517     A.U. after    9 cycles
 SCF Done:  E(RHF) =  -366.955196199     A.U. after    8 cycles
 SCF Done:  E(RHF) =  -366.955196867     A.U. after    8 cycles
 SCF Done:  E(RHF) =  -366.955196988     A.U. after    8 cycles
 Optimization completed.
    -- Stationary point found.
 Normal termination of Gaussian 16 at Tue Jun 17 15:39:18 2025.

 --------------------------------------------------------------
 #N Geom=AllCheck Guess=TCheck SCRF=Check GenChk RHF/3-21G Freq
 --------------------------------------------------------------

 Structure from the checkpoint file:  "PH3_BH3_adduct_opt.chk"
 -------------------
 Title Card Required
 -------------------
 Charge =  0 Multiplicity = 1

                         Standard orientation:
 ---------------------------------------------------------------------
 Center     Atomic      Atomic             Coordinates (Angstroms)
 Number     Number       Type             X           Y           Z
 ---------------------------------------------------------------------
      1         15           0        0.631054   -0.000003   -0.000023
      2          1           0        1.278292    1.044317   -0.685724
      3          1           0        1.278452   -1.116087   -0.561260
      4          1           0        1.277982    0.071831    1.247375
      5          5           0       -1.581244    0.000011    0.000027
      6          1           0       -1.798038    1.053129    0.528708
      7          1           0       -1.798130   -0.984550    0.647465
      8          1           0       -1.798149   -0.068654   -1.176357
 ---------------------------------------------------------------------

 SCF Done:  E(RHF) =  -366.955196988     A.U. after    1 cycles

 The electronic state is 1-A.
 Alpha  occ. eigenvalues --  -79.43264  -7.51068  -7.50915  -5.39377  -5.39377
 Alpha  occ. eigenvalues --   -5.39256  -0.92480  -0.68525  -0.57782  -0.57781
 Alpha  occ. eigenvalues --   -0.44389  -0.44384  -0.42449
 Alpha virt. eigenvalues --    0.16556   0.16558   0.19659   0.23193   0.34874
 Alpha virt. eigenvalues --    0.34881   0.38197   0.57458   0.57458   0.58926
 Alpha virt. eigenvalues --    0.67379   0.67380   0.70104   0.76394   1.17644

 Mulliken charges:
               1
     1  P    0.242088
     2  H    0.008101
     3  H    0.008100
     4  H    0.008098
     5  B   -0.175701
     6  H   -0.030239
     7  H   -0.030229
     8  H   -0.030219
 Sum of Mulliken charges =   0.00000

 Dipole moment (field-independent basis, Debye):
    X=              4.1347    Y=              0.0001    Z=              0.0001  Tot=              4.1347
 Quadrupole moment (field-independent basis, Debye-Ang):
   XX=            -28.2667   YY=            -24.7370   ZZ=            -24.7376
   XY=             -0.0002   XZ=             -0.0007   YZ=             -0.0000

  Exact polarizability:  43.532  -0.001  33.939  -0.001  -0.000  33.937
 Approx polarizability:  33.306  -0.001  29.959  -0.001  -0.000  29.957

                      1                      2                      3
                      A                      A                      A
 Frequencies --    152.5247               229.1654               346.7002
 Red. masses --      1.0078                 5.8150                 1.0715
 Frc consts  --      0.0138                 0.1799                 0.0759
 IR Inten    --      0.0000                41.1265                 0.0627
 Raman Activ --      0.0000                 0.8489                 2.7413

                      4                      5                      6
                      A                      A                      A
 Frequencies --    346.7659               888.5317               888.5613
 Red. masses --      1.0715                 1.1799                 1.1799
 Frc consts  --      0.0759                 0.5489                 0.5489
 IR Inten    --      0.0630                 0.0487                 0.0486
 Raman Activ --      2.7414                17.4630                17.4619

                      7                      8                      9
                      A                      A                      A
 Frequencies --   1044.7558              1189.1244              1242.6838
 Red. masses --      1.1122                 1.1212                 1.0247
 Frc consts  --      0.7153                 0.9341                 0.9323
 IR Inten    --    168.4185               196.0942                13.3708
 Raman Activ --     10.2432                 1.9929                61.3569

                     10                     11                     12
                      A                      A                      A
 Frequencies --   1242.7244              1266.0191              1266.1680
 Red. masses --      1.0247                 1.0758                 1.0758
 Frc consts  --      0.9324                 1.0159                 1.0162
 IR Inten    --     13.3733                14.2887                14.2697
 Raman Activ --     61.3636                 8.7013                 8.7288

                     13                     14                     15
                      A                      A                      A
 Frequencies --   2497.0778              2497.1923              2497.2617
 Red. masses --      1.0350                 1.0366                 1.0382
 Frc consts  --      3.8025                 3.8086                 3.8146
 IR Inten    --     25.9822                26.2668                26.5643
 Raman Activ --    170.3184               164.5291               158.6245

                     16                     17                     18
                      A                      A                      A
 Frequencies --   2614.5643              2703.6295              2703.8546
 Red. masses --      1.0139                 1.1205                 1.1206
 Frc consts  --      4.0838                 4.8258                 4.8267
 IR Inten    --     49.2563               142.3805               142.3402
 Raman Activ --    179.9950                47.8497                47.8399

 - Thermochemistry -
 -------------------
 Temperature   298.150 Kelvin.  Pressure   1.00000 Atm.
 Atom     1 has atomic number 15 and mass  30.97376

 Molecular mass:    48.03002 amu.
 Principal axes and moments of inertia in atomic units:
                           1         2         3
     Eigenvalues --    31.84501 210.79566 210.79857
           X            1.00000   0.00000   0.00001
           Y           -0.00000   1.00000  -0.00000
           Z           -0.00001   0.00000   1.00000
 This molecule is an asymmetric top.
 Rotational symmetry number  1.
 Rotational temperatures (Kelvin)      2.71986     0.41089     0.41088
 Rotational constants (GHZ):          56.67266     8.56157     8.56145
 Zero-point vibrational energy     153225.5 (Joules/Mol)
                                   36.62178 (Kcal/Mol)
 Warning -- explicit consideration of   4 degrees of freedom as
           vibrations may cause significant error
 Vibrational temperatures:    219.45   329.72   498.82   498.92  1278.40
          (Kelvin)           1278.44  1503.17  1710.88  1787.94  1788.00
                             1821.52  1821.73  3592.74  3592.90  3593.00
                             3761.77  3889.92  3890.24

 Zero-point correction=                           0.058361 (Hartree/Particle)
 Thermal correction to Energy=                    0.063294
 Thermal correction to Enthalpy=                  0.064238
 Thermal correction to Gibbs Free Energy=         0.032479
 Sum of electronic and zero-point Energies=           -366.896836
 Sum of electronic and thermal Energies=              -366.891903
 Sum of electronic and thermal Enthalpies=            -366.890959
 Sum of electronic and thermal Free Energies=         -366.922718

                     E (Thermal)             CV                S
                      KCal/Mol        Cal/Mol-Kelvin    Cal/Mol-Kelvin
 Total                   39.717             15.092             66.841
 Electronic               0.000              0.000              0.000
 Translational            0.889              2.981             37.532
 Rotational               0.889              2.981             21.875
 Vibrational             37.940              9.130              7.434
 Vibration     1          0.619              1.900              2.640
 Vibration     2          0.652              1.796              1.885
 Vibration     3          0.725              1.582              1.181
 Vibration     4          0.725              1.582              1.181

 Optimization completed.
    -- Stationary point found.
 Normal termination of Gaussian 16 at Tue Jun 17 15:39:19 2025.
