 Gaussian 16, Revision B.01,
 Gaussian 16:  EM64L-G16RevB.01 20-Dec-2017

 -------------------------------------
 # hf/3-21g pop=full geom=connectivity
 -------------------------------------

 -------------------
 Title Card Required
 -------------------
 Symbolic Z-matrix:
 Charge =  0 Multiplicity = 1

                         Standard orientation:
 ---------------------------------------------------------------------
 Center     Atomic      Atomic             Coordinates (Angstroms)
 Number     Number       Type             X           Y           Z
 ---------------------------------------------------------------------
      1         15           0        0.000011   -0.000003   -0.107865
      2          1           0        1.216020   -0.286533    0.539384
      3          1           0       -0.856268   -0.909796    0.539294
      4          1           0       -0.359921    1.196373    0.539292
 ---------------------------------------------------------------------

 SCF Done:  E(RHF) =  -340.702812828     A.U. after    9 cycles

 The electronic state is 1-A.
 Alpha  occ. eigenvalues --  -79.38105  -7.45698  -5.34172  -5.34172  -5.33843
 Alpha  occ. eigenvalues --   -0.87621  -0.53784  -0.53783  -0.36755
 Alpha virt. eigenvalues --    0.19016   0.19018   0.25646   0.60005   0.60005
 Alpha virt. eigenvalues --    0.62705   0.67639   1.20316   1.27025   1.27026

 Mulliken charges:
               1
     1  P    0.096408
     2  H   -0.032134
     3  H   -0.032134
     4  H   -0.032140
 Sum of Mulliken charges =  -0.00000

 Dipole moment (field-independent basis, Debye):
    X=             -0.0000    Y=              0.0000    Z=              1.3816  Tot=              1.3816
 Quadrupole moment (field-independent basis, Debye-Ang):
   XX=            -15.1337   YY=            -15.1339   ZZ=            -18.2705
   XY=             -0.0000   XZ=              0.0002   YZ=             -0.0000

 Normal termination of Gaussian 16 at Tue Jun 17 15:45:02 2025.
