 Gaussian 16, Revision B.01,
 Gaussian 16:  EM64L-G16RevB.01 20-Dec-2017

 ---------------------------------------------
 #p hf/3-21g opt freq gfinput gfprint pop=full
 ---------------------------------------------

 ------------
 optimisation
 ------------
 Symbolic Z-matrix:
 Charge =  0 Multiplicity = 1

 SCF Done:  E(RHF) =  -344.159850361     A.U. after   36 cycles
 SCF Done:  E(RHF) =  -344.254734872     A.U. after   29 cycles
 SCF Done:  E(RHF) =  -344.354673553     A.U. after   23 cycles
 SCF Done:  E(RHF) =  -344.430064267     A.U. after   21 cycles
 SCF Done:  E(RHF) =  -344.520546158     A.U. after   18 cycles
 SCF Done:  E(RHF) =  -344.548473655     A.U. after   17 cycles
 SCF Done:  E(RHF) =  -344.563834770     A.U. after   15 cycles
 SCF Done:  E(RHF) =  -344.571614263     A.U. after   15 cycles
 SCF Done:  E(RHF) =  -344.576095228     A.U. after   14 cycles
 SCF Done:  E(RHF) =  -344.577810476     A.U. after   15 cycles
 SCF Done:  E(RHF) =  -344.579029831     A.U. after   13 cycles
 SCF Done:  E(RHF) =  -344.578778723     A.U. after   14 cycles
 SCF Done:  E(RHF) =  -344.579311690     A.U. after   13 cycles
 SCF Done:  E(RHF) =  -344.579420126     A.U. after   12 cycles
 SCF Done:  E(RHF) =  -344.579597267     A.U. after   11 cycles
 SCF Done:  E(RHF) =  -344.579576823     A.U. after   10 cycles
 SCF Done:  E(RHF) =  -344.579604707     A.U. after   11 cycles
 SCF Done:  E(RHF) =  -344.579607352     A.U. after   10 cycles
 SCF Done:  E(RHF) =  -344.579607493     A.U. after    8 cycles
 Optimization completed.
    -- Stationary point found.
 Normal termination of Gaussian 16 at Tue Jun 10 01:24:06 2025.

 --------------------------------------------------------------
 #P Geom=AllCheck Guess=TCheck SCRF=Check GenChk RHF/3-21G Freq
 --------------------------------------------------------------

 Structure from the checkpoint file:  "meth_cyclooctatetraene.chk"
 ------------
 optimisation
 ------------
 Charge =  0 Multiplicity = 1

                         Standard orientation:
 ---------------------------------------------------------------------
 Center     Atomic      Atomic             Coordinates (Angstroms)
 Number     Number       Type             X           Y           Z
 ---------------------------------------------------------------------
      1          6           0       -2.137173   -0.839993    0.160736
      2          6           0       -1.109818   -1.614214   -0.176524
      3          6           0        0.048330    1.995033   -0.137273
      4          6           0        0.349315   -1.317932   -0.150277
      5          6           0        1.085299    1.207524    0.128165
      6          6           0        1.199646   -0.284040    0.026838
      7          1           0       -3.135993   -1.224257    0.232105
      8          1           0        0.150420    3.062943   -0.164465
      9          1           0        2.026952    1.678161    0.349417
     10          1           0       -1.307214   -2.645087   -0.413751
     11          1           0        0.873011   -2.251996   -0.260464
     12          6           0       -1.743468    0.532993    0.496457
     13          1           0       -1.577386    0.765900    1.532704
     14          6           0       -1.188168    1.270314   -0.450819
     15          1           0       -1.391577    1.062601   -1.485598
     16          6           0        2.690198   -0.655574    0.085677
     17          1           0        2.845879   -1.719885   -0.020223
     18          1           0        3.237283   -0.148958   -0.703542
     19          1           0        3.113656   -0.344082    1.035935
 ---------------------------------------------------------------------

 SCF Done:  E(RHF) =  -344.579607493     A.U. after    1 cycles

 The electronic state is 1-A.
 Alpha  occ. eigenvalues --  -11.19879 -11.18107 -11.18090 -11.18036 -11.17776
 Alpha  occ. eigenvalues --  -11.17566 -11.16823 -11.16740 -11.16097  -1.14245
 Alpha  occ. eigenvalues --   -1.07924  -1.06649  -0.97032  -0.93125  -0.86064
 Alpha  occ. eigenvalues --   -0.77335  -0.76432  -0.68619  -0.66849  -0.64784
 Alpha  occ. eigenvalues --   -0.62098  -0.57598  -0.57167  -0.55989  -0.55289
 Alpha  occ. eigenvalues --   -0.52572  -0.46986  -0.46916  -0.43802  -0.38429
 Alpha  occ. eigenvalues --   -0.34401  -0.29623
 Alpha virt. eigenvalues --    0.09840   0.15129   0.21119   0.26557   0.29357
 Alpha virt. eigenvalues --    0.29968   0.31694   0.32571   0.33175   0.35978
 Alpha virt. eigenvalues --    0.36516   0.37602   0.38894   0.40804   0.42131

 Mulliken charges:
               1
     1  C   -0.280368
     2  C   -0.187911
     3  C   -0.273267
     4  C   -0.211038
     5  C   -0.158736
     6  C   -0.101143
     7  H    0.236352
     8  H    0.238003
     9  H    0.228038
    10  H    0.225712
    11  H    0.215235
    12  C   -0.229756
    13  H    0.242683
    14  C   -0.235310
    15  H    0.245594
    16  C   -0.590112
    17  H    0.208818
    18  H    0.214035
    19  H    0.213171
 Sum of Mulliken charges =   0.00000

 Dipole moment (field-independent basis, Debye):
    X=              0.7071    Y=             -0.2040    Z=              0.0194  Tot=              0.7362
 Quadrupole moment (field-independent basis, Debye-Ang):
   XX=            -52.4145   YY=            -51.2410   ZZ=            -57.3579
   XY=              2.2148   XZ=              0.1973   YZ=              0.5529

  Exact polarizability: 103.962   6.844  95.359  -1.618  -0.387  47.005
 Approx polarizability:  90.078   5.526  88.193  -1.962  -0.477  45.986

                      1                      2                      3
                      A                      A                      A
 Frequencies --    111.2040               192.6923               224.2691
 Red. masses --      2.9911                 1.2789                 2.0592
 Frc consts  --      0.0218                 0.0280                 0.0610
 IR Inten    --      0.0490                 1.3012                 0.6413
 Raman Activ --      0.2024                 0.7904                 9.2480

                      4                      5                      6
                      A                      A                      A
 Frequencies --    247.2306               344.3044               373.5530
 Red. masses --      2.3041                 2.8892                 4.7626
 Frc consts  --      0.0830                 0.2018                 0.3916
 IR Inten    --      0.0468                 6.1948                 4.0818
 Raman Activ --      1.9337                 3.2161                 1.8865

                      7                      8                      9
                      A                      A                      A
 Frequencies --    416.2768               499.1279               513.6361
 Red. masses --      2.6635                 3.1363                 2.2884
 Frc consts  --      0.2719                 0.4604                 0.3557
 IR Inten    --      1.3548                 0.3520                 4.0334
 Raman Activ --      2.6429                 9.8823                 4.0222

                     10                     11                     12
                      A                      A                      A
 Frequencies --    595.6364               669.5529               714.1885
 Red. masses --      2.6520                 3.9031                 3.0873
 Frc consts  --      0.5543                 1.0309                 0.9278
 IR Inten    --      0.8989                 1.0936                 4.8403
 Raman Activ --      4.8684                 9.0116                10.0817

                     13                     14                     15
                      A                      A                      A
 Frequencies --    821.7603               847.9113               870.5044
 Red. masses --      1.7569                 1.8654                 2.0619
 Frc consts  --      0.6990                 0.7902                 0.9206
 IR Inten    --     10.4002                38.3313                71.2616
 Raman Activ --     12.9949                 2.7943                 7.6336

                     16                     17                     18
                      A                      A                      A
 Frequencies --    909.9886               984.2546              1006.4466
 Red. masses --      3.5584                 2.8089                 2.1963
 Frc consts  --      1.7361                 1.6033                 1.3107
 IR Inten    --      1.3842                21.8341                 0.2844
 Raman Activ --      1.1305                 8.3980                 4.0519

                     19                     20                     21
                      A                      A                      A
 Frequencies --   1020.7535              1048.8328              1121.7593
 Red. masses --      1.6294                 1.2525                 2.9838
 Frc consts  --      1.0003                 0.8118                 2.2122
 IR Inten    --      5.6919                44.8381                 0.3233
 Raman Activ --      7.9919                 9.1600                 2.6462

                     22                     23                     24
                      A                      A                      A
 Frequencies --   1133.6567              1161.7110              1168.8729
 Red. masses --      1.8159                 1.4309                 1.5996
 Frc consts  --      1.3750                 1.1377                 1.2877
 IR Inten    --      3.8810                 1.9109                 2.8039
 Raman Activ --     11.2283                 5.9778                 7.9030

                     25                     26                     27
                      A                      A                      A
 Frequencies --   1173.8302              1200.9477              1231.8604
 Red. masses --      2.8906                 1.5051                 1.7647
 Frc consts  --      2.3467                 1.2790                 1.5778
 IR Inten    --      2.5320                 6.9345                 3.7307
 Raman Activ --      2.1222                 3.9610                15.3511

                     28                     29                     30
                      A                      A                      A
 Frequencies --   1343.0263              1373.8913              1430.0063
 Red. masses --      1.1361                 1.1915                 1.2229
 Frc consts  --      1.2074                 1.3251                 1.4733
 IR Inten    --      0.3126                 3.1384                 2.6341
 Raman Activ --     30.7798                18.4056                 0.7117

                     31                     32                     33
                      A                      A                      A
 Frequencies --   1470.0060              1569.7283              1575.3764
 Red. masses --      1.2756                 1.3494                 1.2754
 Frc consts  --      1.6240                 1.9590                 1.8649
 IR Inten    --      4.5010                 4.2710                 3.0577
 Raman Activ --     14.2706                 4.4636                28.1899

                     34                     35                     36
                      A                      A                      A
 Frequencies --   1581.4445              1610.2874              1661.8828
 Red. masses --      1.3208                 1.3064                 1.0455
 Frc consts  --      1.9463                 1.9959                 1.7012
 IR Inten    --      1.1072                 3.1022                 8.1458
 Raman Activ --      7.6307                33.5968                26.1806

                     37                     38                     39
                      A                      A                      A
 Frequencies --   1672.5609              1721.7474              1797.2784
 Red. masses --      1.1048                 5.6770                 6.0111
 Frc consts  --      1.8210                 9.9154                11.4402
 IR Inten    --      7.5463                 2.9952                 4.5602
 Raman Activ --     35.1113               220.2861                30.7829

                     40                     41                     42
                      A                      A                      A
 Frequencies --   1812.3019              1819.7363              3188.0908
 Red. masses --      3.5926                 5.9872                 1.0374
 Frc consts  --      6.9521                11.6814                 6.2126
 IR Inten    --      7.9261                 7.5468                25.6013
 Raman Activ --     15.6159                17.7009               145.2106

                     43                     44                     45
                      A                      A                      A
 Frequencies --   3232.1896              3275.2569              3293.3767
 Red. masses --      1.1002                 1.0941                 1.0876
 Frc consts  --      6.7718                 6.9154                 6.9500
 IR Inten    --     25.6432                 5.0565                22.4522
 Raman Activ --    100.6972                11.5276                58.2180

                     46                     47                     48
                      A                      A                      A
 Frequencies --   3312.8270              3316.8224              3325.9305
 Red. masses --      1.0849                 1.0861                 1.0919
 Frc consts  --      7.0152                 7.0397                 7.1166
 IR Inten    --     20.1483                32.0598                 8.5787
 Raman Activ --     87.4629               128.0983               113.5508

                     49                     50                     51
                      A                      A                      A
 Frequencies --   3331.2858              3354.1795              3360.3923
 Red. masses --      1.0855                 1.0960                 1.0959
 Frc consts  --      7.0975                 7.2651                 7.2912
 IR Inten    --     11.3312                35.0554                22.0937
 Raman Activ --     34.8113               152.9133               244.9447

 - Thermochemistry -
 -------------------
 Temperature   298.150 Kelvin.  Pressure   1.00000 Atm.
 Atom     1 has atomic number  6 and mass  12.00000

 Molecular mass:   118.07825 amu.
 Principal axes and moments of inertia in atomic units:
                           1         2         3
     Eigenvalues --   710.699381091.174791705.57711
           X            1.00000  -0.00016   0.00290
           Y            0.00015   0.99999   0.00494
           Z           -0.00290  -0.00494   0.99998
 This molecule is an asymmetric top.
 Rotational symmetry number  1.
 Warning -- assumption of classical behavior for rotation
           may cause significant error
 Rotational temperatures (Kelvin)      0.12187     0.07938     0.05078
 Rotational constants (GHZ):           2.53939     1.65394     1.05814
 Zero-point vibrational energy     454786.6 (Joules/Mol)
                                  108.69661 (Kcal/Mol)
 Warning -- explicit consideration of  10 degrees of freedom as
           vibrations may cause significant error
 Vibrational temperatures:    160.00   277.24   322.67   355.71   495.38
          (Kelvin)            537.46   598.93   718.13   739.01   856.99
                              963.34  1027.56  1182.33  1219.96  1252.46
                             1309.27  1416.12  1448.05  1468.64  1509.04
                             1613.96  1631.08  1671.44  1681.75  1688.88
                             1727.90  1772.37  1932.32  1976.72  2057.46
                             2115.01  2258.49  2266.62  2275.35  2316.84
                             2391.08  2406.44  2477.21  2585.88  2607.50
                             2618.19  4586.95  4650.40  4712.36  4738.43
                             4766.42  4772.17  4785.27  4792.98  4825.92
                             4834.85

 Zero-point correction=                           0.173219 (Hartree/Particle)
 Thermal correction to Energy=                    0.180760
 Thermal correction to Enthalpy=                  0.181705
 Thermal correction to Gibbs Free Energy=         0.141311
 Sum of electronic and zero-point Energies=           -344.406388
 Sum of electronic and thermal Energies=              -344.398847
 Sum of electronic and thermal Enthalpies=            -344.397903
 Sum of electronic and thermal Free Energies=         -344.438296

                     E (Thermal)             CV                S
                      KCal/Mol        Cal/Mol-Kelvin    Cal/Mol-Kelvin
 Total                  113.429             29.160             85.015
 Electronic               0.000              0.000              0.000
 Translational            0.889              2.981             40.213
 Rotational               0.889              2.981             28.671
 Vibrational            111.651             23.198             16.130
 Vibration     1          0.607              1.940              3.248
 Vibration     2          0.635              1.850              2.202
 Vibration     3          0.649              1.804              1.924
 Vibration     4          0.661              1.767              1.750
 Vibration     5          0.723              1.587              1.192
 Vibration     6          0.745              1.526              1.065
 Vibration     7          0.779              1.435              0.905
 Vibration     8          0.855              1.252              0.660
 Vibration     9          0.869              1.220              0.625
 Vibration    10          0.953              1.041              0.457

 Optimization completed.
    -- Stationary point found.
 Normal termination of Gaussian 16 at Tue Jun 10 01:24:14 2025.
