 Gaussian 16, Revision B.01,
 Gaussian 16:  EM64L-G16RevB.01 20-Dec-2017

 ----------------------------------------------
 # opt freq hf/3-21g pop=full geom=connectivity
 ----------------------------------------------

 ---------------------
 pyridine optimisation
 ---------------------
 Symbolic Z-matrix:
 Charge =  0 Multiplicity = 1

 SCF Done:  E(RHF) =  -245.306559123     A.U. after   13 cycles
 SCF Done:  E(RHF) =  -245.311894529     A.U. after   12 cycles
 SCF Done:  E(RHF) =  -245.312004324     A.U. after   10 cycles
 SCF Done:  E(RHF) =  -245.312006164     A.U. after    9 cycles
 Optimization completed.
    -- Stationary point found.
 Normal termination of Gaussian 16 at Mon Jun 16 15:49:12 2025.

 --------------------------------------------------------------
 #N Geom=AllCheck Guess=TCheck SCRF=Check GenChk RHF/3-21G Freq
 --------------------------------------------------------------

 Structure from the checkpoint file:  "pyridine_opt.chk"
 ---------------------
 pyridine optimisation
 ---------------------
 Charge =  0 Multiplicity = 1

                         Standard orientation:
 ---------------------------------------------------------------------
 Center     Atomic      Atomic             Coordinates (Angstroms)
 Number     Number       Type             X           Y           Z
 ---------------------------------------------------------------------
      1          6           0       -1.145320   -0.717270   -0.000184
      2          6           0       -1.192580    0.664441   -0.000115
      3          6           0       -0.000085    1.366776    0.000060
      4          6           0        1.192496    0.664585    0.000208
      5          6           0        1.145412   -0.717133    0.000100
      6          7           0        0.000086   -1.394579   -0.000096
      7          1           0       -0.000153    2.438456    0.000171
      8          1           0       -2.046132   -1.295602   -0.000355
      9          1           0       -2.134658    1.172948   -0.000191
     10          1           0        2.134512    1.173205    0.000411
     11          1           0        2.046294   -1.295356    0.000220
 ---------------------------------------------------------------------

 SCF Done:  E(RHF) =  -245.312006164     A.U. after    1 cycles

 The electronic state is 1-A.
 Alpha  occ. eigenvalues --  -15.49158 -11.21746 -11.21700 -11.20138 -11.18761
 Alpha  occ. eigenvalues --  -11.18751  -1.27548  -1.09505  -1.04146  -0.86258
 Alpha  occ. eigenvalues --   -0.85970  -0.73336  -0.66716  -0.65487  -0.61046
 Alpha  occ. eigenvalues --   -0.57708  -0.54836  -0.52084  -0.40036  -0.38423
 Alpha  occ. eigenvalues --   -0.35599
 Alpha virt. eigenvalues --    0.12996   0.13918   0.26212   0.31580   0.33832
 Alpha virt. eigenvalues --    0.36208   0.36267   0.36536   0.44649   0.49596
 Alpha virt. eigenvalues --    0.53319   0.54527   0.73763   0.75135   0.91403

 Mulliken charges:
               1
     1  C    0.125725
     2  C   -0.334856
     3  C   -0.175057
     4  C   -0.334856
     5  C    0.125724
     6  N   -0.669483
     7  H    0.254937
     8  H    0.255911
     9  H    0.248021
    10  H    0.248021
    11  H    0.255912
 Sum of Mulliken charges =  -0.00000

 Dipole moment (field-independent basis, Debye):
    X=             -0.0001    Y=              2.3968    Z=              0.0003  Tot=              2.3968
 Quadrupole moment (field-independent basis, Debye-Ang):
   XX=            -28.9047   YY=            -36.6710   ZZ=            -38.8281
   XY=              0.0004   XZ=              0.0015   YZ=              0.0002

  Exact polarizability:  61.813   0.000  55.215   0.006   0.003  14.590
 Approx polarizability:  60.501   0.000  58.013   0.006   0.003  13.796

                      1                      2                      3
                      A                      A                      A
 Frequencies --    457.7665               486.1693               689.3551
 Red. masses --      2.5135                 3.5412                 7.3590
 Frc consts  --      0.3103                 0.4931                 2.0604
 IR Inten    --      0.0000                 5.2771                 6.2363
 Raman Activ --      0.0064                 0.7006                 3.2168

                      4                      5                      6
                      A                      A                      A
 Frequencies --    749.1995               822.7934               875.1768
 Red. masses --      6.4302                 1.3828                 1.8800
 Frc consts  --      2.1265                 0.5516                 0.8484
 IR Inten    --      0.7178                89.9571                16.2826
 Raman Activ --      4.6559                 0.0144                 1.4391

                      7                      8                      9
                      A                      A                      A
 Frequencies --   1039.0873              1082.3891              1118.1784
 Red. masses --      1.2473                 6.8448                 1.3733
 Frc consts  --      0.7935                 4.7248                 1.0117
 IR Inten    --      0.0000                 2.6570                 0.0633
 Raman Activ --      4.4441                36.2764                 1.7861

                     10                     11                     12
                      A                      A                      A
 Frequencies --   1137.7433              1158.1559              1189.8514
 Red. masses --      2.7925                 2.0684                 1.4797
 Frc consts  --      2.1297                 1.6346                 1.2343
 IR Inten    --     13.6498                 0.3169                 0.0000
 Raman Activ --      7.6877                 0.2984                 1.1753

                     13                     14                     15
                      A                      A                      A
 Frequencies --   1191.1829              1198.8242              1212.7895
 Red. masses --      5.9746                 2.9280                 1.4665
 Frc consts  --      4.9948                 2.4793                 1.2709
 IR Inten    --      1.6710                 0.3178                 0.6697
 Raman Activ --      1.7234                 2.1384                 0.0000

                     16                     17                     18
                      A                      A                      A
 Frequencies --   1327.1538              1353.8148              1528.5963
 Red. masses --      1.1833                 1.2820                 1.2314
 Frc consts  --      1.2279                 1.3844                 1.6953
 IR Inten    --      2.3999                 2.4444                 2.5959
 Raman Activ --      4.1099                10.3129                 0.0528

                     19                     20                     21
                      A                      A                      A
 Frequencies --   1607.1293              1654.2643              1741.4761
 Red. masses --      1.8471                 1.7545                 4.3611
 Frc consts  --      2.8109                 2.8289                 7.7925
 IR Inten    --     38.3923                13.5427                 7.8754
 Raman Activ --      0.6356                 1.0031                11.5971

                     22                     23                     24
                      A                      A                      A
 Frequencies --   1748.8762              3362.9021              3368.4606
 Red. masses --      4.2318                 1.0879                 1.0879
 Frc consts  --      7.6259                 7.2485                 7.2725
 IR Inten    --     24.2366                 0.0115                 9.4091
 Raman Activ --     11.8709                51.9059               120.4514

                     25                     26                     27
                      A                      A                      A
 Frequencies --   3376.6399              3391.2211              3401.1430
 Red. masses --      1.0937                 1.0949                 1.1006
 Frc consts  --      7.3473                 7.4187                 7.5008
 IR Inten    --     25.0212                31.9437                 0.0608
 Raman Activ --     30.1160                 2.9811               270.2547

 - Thermochemistry -
 -------------------
 Temperature   298.150 Kelvin.  Pressure   1.00000 Atm.
 Atom     1 has atomic number  6 and mass  12.00000

 Molecular mass:    79.04220 amu.
 Principal axes and moments of inertia in atomic units:
                           1         2         3
     Eigenvalues --   297.25537 302.40748 599.66285
           X           -0.00020   1.00000  -0.00013
           Y            1.00000   0.00020  -0.00006
           Z            0.00006   0.00013   1.00000
 This molecule is an asymmetric top.
 Rotational symmetry number  1.
 Rotational temperatures (Kelvin)      0.29138     0.28641     0.14444
 Rotational constants (GHZ):           6.07135     5.96791     3.00959
 Zero-point vibrational energy     252832.8 (Joules/Mol)
                                   60.42848 (Kcal/Mol)
 Warning -- explicit consideration of   2 degrees of freedom as
           vibrations may cause significant error
 Vibrational temperatures:    658.62   699.49   991.83  1077.93  1183.82
          (Kelvin)           1259.18  1495.01  1557.32  1608.81  1636.96
                             1666.33  1711.93  1713.85  1724.84  1744.93
                             1909.48  1947.84  2199.31  2312.30  2380.12
                             2505.60  2516.24  4838.47  4846.46  4858.23
                             4879.21  4893.49

 Zero-point correction=                           0.096299 (Hartree/Particle)
 Thermal correction to Energy=                    0.100189
 Thermal correction to Enthalpy=                  0.101133
 Thermal correction to Gibbs Free Energy=         0.069089
 Sum of electronic and zero-point Energies=           -245.215707
 Sum of electronic and thermal Energies=              -245.211817
 Sum of electronic and thermal Enthalpies=            -245.210873
 Sum of electronic and thermal Free Energies=         -245.242917

                     E (Thermal)             CV                S
                      KCal/Mol        Cal/Mol-Kelvin    Cal/Mol-Kelvin
 Total                   62.870             14.010             67.443
 Electronic               0.000              0.000              0.000
 Translational            0.889              2.981             39.017
 Rotational               0.889              2.981             25.492
 Vibrational             61.092              8.049              2.934
 Vibration     1          0.816              1.344              0.773
 Vibration     2          0.842              1.281              0.694

 Optimization completed.
    -- Stationary point found.
 Normal termination of Gaussian 16 at Mon Jun 16 15:49:14 2025.
