 Gaussian 16, Revision B.01,
 Gaussian 16:  EM64L-G16RevB.01 20-Dec-2017

 ----------------------------------------------
 # opt freq hf/3-21g pop=full geom=connectivity
 ----------------------------------------------

 ----------------------
 pyridine+ optimisation
 ----------------------
 Symbolic Z-matrix:
 Charge =  1 Multiplicity = 1

 SCF Done:  E(RHF) =  -245.693323982     A.U. after   12 cycles
 SCF Done:  E(RHF) =  -245.696048604     A.U. after   12 cycles
 SCF Done:  E(RHF) =  -245.696410902     A.U. after   10 cycles
 SCF Done:  E(RHF) =  -245.696413244     A.U. after    9 cycles
 Optimization completed.
    -- Stationary point found.
 Normal termination of Gaussian 16 at Mon Jun 16 16:00:30 2025.

 --------------------------------------------------------------
 #N Geom=AllCheck Guess=TCheck SCRF=Check GenChk RHF/3-21G Freq
 --------------------------------------------------------------

 Structure from the checkpoint file:  "pyridine_ion_opt.chk"
 ----------------------
 pyridine+ optimisation
 ----------------------
 Charge =  1 Multiplicity = 1

                         Standard orientation:
 ---------------------------------------------------------------------
 Center     Atomic      Atomic             Coordinates (Angstroms)
 Number     Number       Type             X           Y           Z
 ---------------------------------------------------------------------
      1          6           0        0.658801   -1.179314   -0.000208
      2          6           0       -0.710093   -1.204225   -0.000118
      3          6           0       -1.402634   -0.000000    0.000096
      4          6           0       -0.710093    1.204224    0.000214
      5          6           0        0.658801    1.179314    0.000118
      6          7           0        1.303636    0.000000   -0.000089
      7          1           0       -2.473477   -0.000000    0.000169
      8          1           0        1.258147   -2.063994   -0.000371
      9          1           0       -1.223584   -2.141329   -0.000212
     10          1           0       -1.223585    2.141329    0.000379
     11          1           0        1.258147    2.063994    0.000199
     12          1           0        2.310207    0.000000   -0.000159
 ---------------------------------------------------------------------

 SCF Done:  E(RHF) =  -245.696413244     A.U. after    1 cycles

 The electronic state is 1-A.
 Alpha  occ. eigenvalues --  -15.80332 -11.46187 -11.46139 -11.41590 -11.39181
 Alpha  occ. eigenvalues --  -11.39171  -1.54971  -1.32193  -1.27489  -1.10457
 Alpha  occ. eigenvalues --   -1.09478  -1.00305  -0.89993  -0.89284  -0.85061
 Alpha  occ. eigenvalues --   -0.83557  -0.80728  -0.73560  -0.73534  -0.61553
 Alpha  occ. eigenvalues --   -0.56931
 Alpha virt. eigenvalues --   -0.11546  -0.06315   0.04178   0.11767   0.13042
 Alpha virt. eigenvalues --    0.13967   0.14680   0.18540   0.19789   0.26242
 Alpha virt. eigenvalues --    0.28601   0.31273   0.31611   0.50549   0.54901

 Mulliken charges:
               1
     1  C    0.262041
     2  C   -0.340792
     3  C   -0.107259
     4  C   -0.340792
     5  C    0.262040
     6  N   -0.919716
     7  H    0.343018
     8  H    0.361706
     9  H    0.335994
    10  H    0.335994
    11  H    0.361706
    12  H    0.446058
 Sum of Mulliken charges =   1.00000

 Dipole moment (field-independent basis, Debye):
    X=              1.9893    Y=             -0.0000    Z=             -0.0001  Tot=              1.9893
 Quadrupole moment (field-independent basis, Debye-Ang):
   XX=            -17.3834   YY=            -21.2380   ZZ=            -37.6448
   XY=              0.0000   XZ=             -0.0014   YZ=              0.0023

  Exact polarizability:  57.581  -0.000  58.484  -0.003   0.006  13.901
 Approx polarizability:  57.748  -0.000  56.177  -0.003   0.006  13.300

                      1                      2                      3
                      A                      A                      A
 Frequencies --    443.9911               460.0997               695.7651
 Red. masses --      2.7209                 2.6250                 6.3546
 Frc consts  --      0.3160                 0.3274                 1.8124
 IR Inten    --      1.9213                 0.0000                 0.0425
 Raman Activ --      0.4009                 0.0075                 2.0325

                      4                      5                      6
                      A                      A                      A
 Frequencies --    724.8970               790.9743               853.5400
 Red. masses --      6.2890                 1.7006                 1.3298
 Frc consts  --      1.9471                 0.6269                 0.5708
 IR Inten    --      0.8811               135.2828               152.3362
 Raman Activ --      4.5049                 0.2488                 0.1620

                      7                      8                      9
                      A                      A                      A
 Frequencies --   1021.0005              1031.6831              1080.4721
 Red. masses --      1.2582                 1.2450                 6.1745
 Frc consts  --      0.7728                 0.7807                 4.2470
 IR Inten    --     27.9519                 0.0000                 4.7140
 Raman Activ --      2.1108                 2.1379                45.4529

                     10                     11                     12
                      A                      A                      A
 Frequencies --   1140.7088              1140.7149              1192.6368
 Red. masses --      2.2134                 2.0596                 1.4060
 Frc consts  --      1.6969                 1.5790                 1.1783
 IR Inten    --     18.3399                 3.4995                 7.1018
 Raman Activ --      0.0002                 0.4046                 0.0017

                     13                     14                     15
                      A                      A                      A
 Frequencies --   1196.0975              1204.1434              1246.7626
 Red. masses --      5.2979                 1.4384                 1.5088
 Frc consts  --      4.4657                 1.2288                 1.3818
 IR Inten    --      0.3370                 0.0000                10.9846
 Raman Activ --      5.3674                 0.0089                 0.4105

                     16                     17                     18
                      A                      A                      A
 Frequencies --   1270.2240              1345.8290              1347.0299
 Red. masses --      3.1807                 1.3230                 1.2286
 Frc consts  --      3.0236                 1.4119                 1.3134
 IR Inten    --     53.8390                 0.7677                 9.1305
 Raman Activ --      4.4853                 5.1894                 4.4897

                     19                     20                     21
                      A                      A                      A
 Frequencies --   1447.9197              1572.0967              1658.7498
 Red. masses --      1.1704                 1.3200                 1.7364
 Frc consts  --      1.4457                 1.9221                 2.8149
 IR Inten    --      5.8904                 5.0171                36.3758
 Raman Activ --      0.0371                 0.4333                 0.8053

                     22                     23                     24
                      A                      A                      A
 Frequencies --   1713.0379              1784.3907              1787.0252
 Red. masses --      2.3649                 2.0767                 4.0491
 Frc consts  --      4.0888                 3.8959                 7.6185
 IR Inten    --     21.2799               106.9805                64.7606
 Raman Activ --      1.8992                11.8681                21.8205

                     25                     26                     27
                      A                      A                      A
 Frequencies --   3393.9988              3414.1074              3415.8745
 Red. masses --      1.0931                 1.0917                 1.0945
 Frc consts  --      7.4186                 7.4971                 7.5244
 IR Inten    --      0.5971                 0.0062                 9.7884
 Raman Activ --     58.1690                85.4584                 2.5752

                     28                     29                     30
                      A                      A                      A
 Frequencies --   3427.2151              3430.9707              3705.1506
 Red. masses --      1.0986                 1.1023                 1.0805
 Frc consts  --      7.6028                 7.6453                 8.7397
 IR Inten    --     20.9755                 0.5798               228.6211
 Raman Activ --      1.1509               213.7845                66.8894

 - Thermochemistry -
 -------------------
 Temperature   298.150 Kelvin.  Pressure   1.00000 Atm.
 Atom     1 has atomic number  6 and mass  12.00000

 Molecular mass:    80.05002 amu.
 Principal axes and moments of inertia in atomic units:
                           1         2         3
     Eigenvalues --   307.15331 313.10178 620.25509
           X            1.00000   0.00000   0.00007
           Y           -0.00000   1.00000  -0.00014
           Z           -0.00007   0.00014   1.00000
 This molecule is an asymmetric top.
 Rotational symmetry number  1.
 Rotational temperatures (Kelvin)      0.28199     0.27663     0.13964
 Rotational constants (GHZ):           5.87570     5.76407     2.90968
 Zero-point vibrational energy     292708.9 (Joules/Mol)
                                   69.95911 (Kcal/Mol)
 Warning -- explicit consideration of   2 degrees of freedom as
           vibrations may cause significant error
 Vibrational temperatures:    638.80   661.98  1001.05  1042.97  1138.04
          (Kelvin)           1228.05  1468.99  1484.36  1554.56  1641.23
                             1641.23  1715.94  1720.92  1732.49  1793.81
                             1827.57  1936.35  1938.08  2083.23  2261.90
                             2386.57  2464.68  2567.34  2571.13  4883.21
                             4912.14  4914.68  4931.00  4936.40  5330.89

 Zero-point correction=                           0.111487 (Hartree/Particle)
 Thermal correction to Energy=                    0.115455
 Thermal correction to Enthalpy=                  0.116400
 Thermal correction to Gibbs Free Energy=         0.084178
 Sum of electronic and zero-point Energies=           -245.584926
 Sum of electronic and thermal Energies=              -245.580958
 Sum of electronic and thermal Enthalpies=            -245.580014
 Sum of electronic and thermal Free Energies=         -245.612235

                     E (Thermal)             CV                S
                      KCal/Mol        Cal/Mol-Kelvin    Cal/Mol-Kelvin
 Total                   72.449             14.507             67.816
 Electronic               0.000              0.000              0.000
 Translational            0.889              2.981             39.055
 Rotational               0.889              2.981             25.592
 Vibrational             70.672              8.546              3.169
 Vibration     1          0.803              1.374              0.814
 Vibration     2          0.818              1.339              0.766

 Optimization completed.
    -- Stationary point found.
 Normal termination of Gaussian 16 at Mon Jun 16 16:00:32 2025.
