 Gaussian 16, Revision B.01,
 Gaussian 16:  EM64L-G16RevB.01 20-Dec-2017

 -------------------------------------
 # hf/3-21g pop=full geom=connectivity
 -------------------------------------

 -----------
 pyridine sp
 -----------
 Symbolic Z-matrix:
 Charge =  0 Multiplicity = 1

                         Standard orientation:
 ---------------------------------------------------------------------
 Center     Atomic      Atomic             Coordinates (Angstroms)
 Number     Number       Type             X           Y           Z
 ---------------------------------------------------------------------
      1          6           0        1.145321    0.717268   -0.000184
      2          6           0        1.192579   -0.664443   -0.000115
      3          6           0        0.000083   -1.366776    0.000060
      4          6           0       -1.192497   -0.664584    0.000208
      5          6           0       -1.145411    0.717134    0.000100
      6          7           0       -0.000084    1.394579   -0.000096
      7          1           0        0.000150   -2.438456    0.000171
      8          1           0        2.046134    1.295599   -0.000355
      9          1           0        2.134657   -1.172951   -0.000191
     10          1           0       -2.134513   -1.173202    0.000411
     11          1           0       -2.046292    1.295359    0.000220
 ---------------------------------------------------------------------

 SCF Done:  E(RHF) =  -245.312006164     A.U. after   13 cycles

 The electronic state is 1-A.
 Alpha  occ. eigenvalues --  -15.49158 -11.21746 -11.21700 -11.20138 -11.18761
 Alpha  occ. eigenvalues --  -11.18751  -1.27548  -1.09505  -1.04146  -0.86258
 Alpha  occ. eigenvalues --   -0.85970  -0.73336  -0.66716  -0.65487  -0.61046
 Alpha  occ. eigenvalues --   -0.57708  -0.54836  -0.52084  -0.40036  -0.38423
 Alpha  occ. eigenvalues --   -0.35599
 Alpha virt. eigenvalues --    0.12996   0.13918   0.26212   0.31580   0.33832
 Alpha virt. eigenvalues --    0.36208   0.36267   0.36536   0.44649   0.49596
 Alpha virt. eigenvalues --    0.53319   0.54527   0.73763   0.75135   0.91403

 Mulliken charges:
               1
     1  C    0.125725
     2  C   -0.334856
     3  C   -0.175057
     4  C   -0.334856
     5  C    0.125724
     6  N   -0.669483
     7  H    0.254937
     8  H    0.255911
     9  H    0.248021
    10  H    0.248021
    11  H    0.255912
 Sum of Mulliken charges =  -0.00000

 Dipole moment (field-independent basis, Debye):
    X=              0.0001    Y=             -2.3968    Z=              0.0003  Tot=              2.3968
 Quadrupole moment (field-independent basis, Debye-Ang):
   XX=            -28.9047   YY=            -36.6710   ZZ=            -38.8281
   XY=              0.0004   XZ=             -0.0015   YZ=             -0.0002

 Normal termination of Gaussian 16 at Mon Jun 16 15:49:45 2025.
