 Gaussian 16, Revision B.01,
 Gaussian 16:  EM64L-G16RevB.01 20-Dec-2017

 -------------------------------------
 # hf/3-21g pop=full geom=connectivity
 -------------------------------------

 ------------
 pyridine+ sp
 ------------
 Symbolic Z-matrix:
 Charge =  1 Multiplicity = 1

                         Standard orientation:
 ---------------------------------------------------------------------
 Center     Atomic      Atomic             Coordinates (Angstroms)
 Number     Number       Type             X           Y           Z
 ---------------------------------------------------------------------
      1          6           0        0.658799   -1.179315   -0.000208
      2          6           0       -0.710095   -1.204223   -0.000118
      3          6           0       -1.402634    0.000003    0.000096
      4          6           0       -0.710091    1.204226    0.000214
      5          6           0        0.658803    1.179313    0.000118
      6          7           0        1.303636   -0.000003   -0.000089
      7          1           0       -2.473477    0.000005    0.000169
      8          1           0        1.258143   -2.063996   -0.000371
      9          1           0       -1.223588   -2.141326   -0.000212
     10          1           0       -1.223581    2.141332    0.000379
     11          1           0        1.258151    2.063992    0.000199
     12          1           0        2.310207   -0.000005   -0.000159
 ---------------------------------------------------------------------

 SCF Done:  E(RHF) =  -245.696413244     A.U. after   12 cycles

 The electronic state is 1-A.
 Alpha  occ. eigenvalues --  -15.80332 -11.46187 -11.46139 -11.41590 -11.39181
 Alpha  occ. eigenvalues --  -11.39171  -1.54971  -1.32193  -1.27489  -1.10457
 Alpha  occ. eigenvalues --   -1.09478  -1.00305  -0.89993  -0.89284  -0.85061
 Alpha  occ. eigenvalues --   -0.83557  -0.80728  -0.73560  -0.73534  -0.61553
 Alpha  occ. eigenvalues --   -0.56931
 Alpha virt. eigenvalues --   -0.11546  -0.06315   0.04178   0.11767   0.13042
 Alpha virt. eigenvalues --    0.13967   0.14680   0.18540   0.19789   0.26242
 Alpha virt. eigenvalues --    0.28601   0.31273   0.31611   0.50549   0.54901

 Mulliken charges:
               1
     1  C    0.262041
     2  C   -0.340792
     3  C   -0.107259
     4  C   -0.340792
     5  C    0.262041
     6  N   -0.919717
     7  H    0.343018
     8  H    0.361706
     9  H    0.335994
    10  H    0.335994
    11  H    0.361707
    12  H    0.446059
 Sum of Mulliken charges =   1.00000

 Dipole moment (field-independent basis, Debye):
    X=              1.9893    Y=             -0.0000    Z=             -0.0001  Tot=              1.9893
 Quadrupole moment (field-independent basis, Debye-Ang):
   XX=            -17.3834   YY=            -21.2380   ZZ=            -37.6448
   XY=             -0.0000   XZ=             -0.0014   YZ=              0.0023

 Normal termination of Gaussian 16 at Mon Jun 16 16:01:06 2025.
