 Gaussian 16, Revision B.01,
 Gaussian 16:  EM64L-G16RevB.01 20-Dec-2017

 -------------------------------------
 # hf/3-21g pop=full geom=connectivity
 -------------------------------------

 -------------------
 Title Card Required
 -------------------
 Symbolic Z-matrix:
 Charge =  0 Multiplicity = 1

                         Standard orientation:
 ---------------------------------------------------------------------
 Center     Atomic      Atomic             Coordinates (Angstroms)
 Number     Number       Type             X           Y           Z
 ---------------------------------------------------------------------
      1         13           0        0.000000    0.000000    0.000000
      2         17           0        0.000000    2.159854    0.000000
      3         17           0        1.870488   -1.079927    0.000000
      4         17           0       -1.870488   -1.079927    0.000000
 ---------------------------------------------------------------------

 SCF Done:  E(RHF) =  -1612.69608795     A.U. after   10 cycles

 The electronic state is 1-A1'.
 Alpha  occ. eigenvalues -- -104.13624-104.13624-104.13622 -58.24095 -10.52858
 Alpha  occ. eigenvalues --  -10.52858 -10.52851  -7.99147  -7.99147  -7.99136
 Alpha  occ. eigenvalues --   -7.98840  -7.98814  -7.98814  -7.98805  -7.98805
 Alpha  occ. eigenvalues --   -7.98799  -5.04102  -3.34544  -3.34544  -3.34467
 Alpha  occ. eigenvalues --   -1.13285  -1.11368  -1.11368  -0.62718  -0.54982
 Alpha  occ. eigenvalues --   -0.54982  -0.52199  -0.49564  -0.49564  -0.49493
 Alpha  occ. eigenvalues --   -0.49493  -0.48359
 Alpha virt. eigenvalues --    0.01575   0.02087   0.14883   0.14883   0.23968
 Alpha virt. eigenvalues --    0.28065   0.33502   0.33502   0.72315   0.72315
 Alpha virt. eigenvalues --    0.75710   0.77256   0.77256   0.84613   0.86633

 Mulliken charges:
               1
     1  Al   1.371667
     2  Cl  -0.457222
     3  Cl  -0.457222
     4  Cl  -0.457222
 Sum of Mulliken charges =   0.00000

 Dipole moment (field-independent basis, Debye):
    X=              0.0000    Y=              0.0000    Z=             -0.0000  Tot=              0.0000
 Quadrupole moment (field-independent basis, Debye-Ang):
   XX=            -62.1298   YY=            -62.1298   ZZ=            -47.7132
   XY=              0.0000   XZ=              0.0000   YZ=             -0.0000

 Normal termination of Gaussian 16 at Fri Jun 13 21:12:43 2025.
