 Gaussian 16, Revision B.01,
 Gaussian 16:  EM64L-G16RevB.01 20-Dec-2017

 -------------------------------------
 # opt freq hf/3-21g geom=connectivity
 -------------------------------------

 -------------------
 Title Card Required
 -------------------
 Symbolic Z-matrix:
 Charge =  0 Multiplicity = 1

 SCF Done:  E(RHF) =  -1612.69056143     A.U. after   10 cycles
 SCF Done:  E(RHF) =  -1612.69594959     A.U. after    9 cycles
 SCF Done:  E(RHF) =  -1612.69608795     A.U. after    8 cycles
 Optimization completed.
    -- Stationary point found.
 Normal termination of Gaussian 16 at Fri Jun 13 21:11:53 2025.

 --------------------------------------------------------------
 #N Geom=AllCheck Guess=TCheck SCRF=Check GenChk RHF/3-21G Freq
 --------------------------------------------------------------

 Structure from the checkpoint file:  "AlCl3_opt.chk"
 -------------------
 Title Card Required
 -------------------
 Charge =  0 Multiplicity = 1

                         Standard orientation:
 ---------------------------------------------------------------------
 Center     Atomic      Atomic             Coordinates (Angstroms)
 Number     Number       Type             X           Y           Z
 ---------------------------------------------------------------------
      1         13           0        0.000000    0.000000    0.000000
      2         17           0        0.000000    2.159854    0.000000
      3         17           0       -1.870489   -1.079927    0.000000
      4         17           0        1.870489   -1.079927    0.000000
 ---------------------------------------------------------------------

 SCF Done:  E(RHF) =  -1612.69608795     A.U. after    1 cycles

 Unable to determine electronic state:  an orbital has unidentified symmetry.
 Alpha  occ. eigenvalues -- -104.13624-104.13624-104.13622 -58.24095 -10.52858
 Alpha  occ. eigenvalues --  -10.52858 -10.52851  -7.99147  -7.99147  -7.99136
 Alpha  occ. eigenvalues --   -7.98840  -7.98814  -7.98814  -7.98805  -7.98805
 Alpha  occ. eigenvalues --   -7.98799  -5.04102  -3.34544  -3.34544  -3.34468
 Alpha  occ. eigenvalues --   -1.13285  -1.11368  -1.11368  -0.62718  -0.54982
 Alpha  occ. eigenvalues --   -0.54982  -0.52199  -0.49564  -0.49564  -0.49493
 Alpha  occ. eigenvalues --   -0.49493  -0.48359
 Alpha virt. eigenvalues --    0.01575   0.02087   0.14883   0.14883   0.23968
 Alpha virt. eigenvalues --    0.28065   0.33502   0.33502   0.72315   0.72315
 Alpha virt. eigenvalues --    0.75710   0.77256   0.77256   0.84613   0.86633

 Mulliken charges:
               1
     1  Al   1.371667
     2  Cl  -0.457222
     3  Cl  -0.457222
     4  Cl  -0.457222
 Sum of Mulliken charges =   0.00000

 Dipole moment (field-independent basis, Debye):
    X=             -0.0000    Y=              0.0000    Z=              0.0000  Tot=              0.0000
 Quadrupole moment (field-independent basis, Debye-Ang):
   XX=            -62.1298   YY=            -62.1298   ZZ=            -47.7132
   XY=             -0.0000   XZ=             -0.0000   YZ=             -0.0000

  Exact polarizability:  48.715   0.000  48.715   0.000   0.000  20.374
 Approx polarizability:  39.224   0.000  39.224  -0.000  -0.000  15.318

                      1                      2                      3
                     ?A                     ?A                     A2"
 Frequencies --    141.3683               141.3683               197.1332
 Red. masses --     33.7308                33.7308                28.3041
 Frc consts  --      0.3972                 0.3972                 0.6481
 IR Inten    --     18.9076                18.9076                87.8781
 Raman Activ --      4.6451                 4.6451                 0.0000

                      4                      5                      6
                     ?B                     ?A                     ?A
 Frequencies --    367.0614               608.7236               608.7236
 Red. masses --     34.9689                29.1708                29.1708
 Frc consts  --      2.7759                 6.3685                 6.3685
 IR Inten    --      0.0000               180.7310               180.7310
 Raman Activ --     14.5135                 1.7864                 1.7864

 - Thermochemistry -
 -------------------
 Temperature   298.150 Kelvin.  Pressure   1.00000 Atm.
 Atom     1 has atomic number 13 and mass  26.98154

 Molecular mass:   131.88810 amu.
 Principal axes and moments of inertia in atomic units:
                           1         2         3
     Eigenvalues --   873.81457 873.814571747.62914
           X            0.44721   0.89443   0.00000
           Y            0.89443  -0.44721   0.00000
           Z            0.00000  -0.00000   1.00000
 This molecule is an oblate symmetric top.
 Rotational symmetry number  6.
 Warning -- assumption of classical behavior for rotation
           may cause significant error
 Rotational temperatures (Kelvin)      0.09912     0.09912     0.04956
 Rotational constants (GHZ):           2.06536     2.06536     1.03268
 Zero-point vibrational energy      12347.7 (Joules/Mol)
                                    2.95118 (Kcal/Mol)
 Warning -- explicit consideration of   6 degrees of freedom as
           vibrations may cause significant error
 Vibrational temperatures:    203.40   203.40   283.63   528.12   875.82
          (Kelvin)            875.82

 Zero-point correction=                           0.004703 (Hartree/Particle)
 Thermal correction to Energy=                    0.010071
 Thermal correction to Enthalpy=                  0.011015
 Thermal correction to Gibbs Free Energy=        -0.024788
 Sum of electronic and zero-point Energies=          -1612.691385
 Sum of electronic and thermal Energies=             -1612.686017
 Sum of electronic and thermal Enthalpies=           -1612.685073
 Sum of electronic and thermal Free Energies=        -1612.720876

                     E (Thermal)             CV                S
                      KCal/Mol        Cal/Mol-Kelvin    Cal/Mol-Kelvin
 Total                    6.320             15.196             75.355
 Electronic               0.000              0.000              0.000
 Translational            0.889              2.981             40.543
 Rotational               0.889              2.981             25.120
 Vibrational              4.542              9.234              9.692
 Vibration     1          0.615              1.912              2.785
 Vibration     2          0.615              1.912              2.785
 Vibration     3          0.637              1.844              2.160
 Vibration     4          0.740              1.540              1.092
 Vibration     5          0.968              1.013              0.435
 Vibration     6          0.968              1.013              0.435

 Optimization completed.
    -- Stationary point found.
 Normal termination of Gaussian 16 at Fri Jun 13 21:11:54 2025.
