 Gaussian 16, Revision B.01,
 Gaussian 16:  EM64L-G16RevB.01 20-Dec-2017

 --------------------------------
 # opt hf/3-21g geom=connectivity
 --------------------------------

 ------------------
 Optimisation 3-21G
 ------------------
 Symbolic Z-matrix:
 Charge =  0 Multiplicity = 1

 SCF Done:  E(RHF) =  -420.027699050     A.U. after   13 cycles
 SCF Done:  E(RHF) =  -420.036278731     A.U. after   13 cycles
 SCF Done:  E(RHF) =  -420.036784722     A.U. after   12 cycles
 SCF Done:  E(RHF) =  -420.037042185     A.U. after   11 cycles
 SCF Done:  E(RHF) =  -420.037183080     A.U. after   13 cycles
 SCF Done:  E(RHF) =  -420.037243372     A.U. after   10 cycles
 SCF Done:  E(RHF) =  -420.037249427     A.U. after   10 cycles
 SCF Done:  E(RHF) =  -420.037264736     A.U. after   10 cycles
 SCF Done:  E(RHF) =  -420.037266406     A.U. after    9 cycles
 SCF Done:  E(RHF) =  -420.037266520     A.U. after    8 cycles
 Optimization completed.
    -- Stationary point found.

                         Standard orientation:
 ---------------------------------------------------------------------
 Center     Atomic      Atomic             Coordinates (Angstroms)
 Number     Number       Type             X           Y           Z
 ---------------------------------------------------------------------
      1          6           0       -2.940238    0.344731    0.000005
      2          6           0       -1.910845    1.230250   -0.000001
      3          6           0       -0.567952    0.778237   -0.000001
      4          6           0       -0.309986   -0.604754   -0.000002
      5          6           0       -1.404945   -1.505476   -0.000001
      6          6           0       -2.682308   -1.044829   -0.000001
      7          1           0        0.339503    2.729379    0.000009
      8          1           0       -3.954081    0.692512    0.000006
      9          1           0       -2.099718    2.286498    0.000005
     10          6           0        0.533311    1.673956    0.000003
     11          6           0        1.036177   -1.057054   -0.000007
     12          1           0       -1.205662   -2.559705    0.000006
     13          1           0       -3.504606   -1.732512    0.000007
     14          6           0        2.076961   -0.185349   -0.000008
     15          6           0        1.805626    1.209506   -0.000010
     16          1           0        1.218371   -2.115038   -0.000006
     17          1           0        2.629913    1.896635    0.000000
     18          6           0        3.517862   -0.654224    0.000010
     19          1           0        4.038982   -0.285986   -0.877907
     20          1           0        4.038831   -0.286400    0.878193
     21          1           0        3.576482   -1.735347   -0.000241
 ---------------------------------------------------------------------

 The electronic state is 1-A.
 Alpha  occ. eigenvalues --  -11.18763 -11.18678 -11.18513 -11.17822 -11.17725
 Alpha  occ. eigenvalues --  -11.17626 -11.17596 -11.17488 -11.17423 -11.17222
 Alpha  occ. eigenvalues --  -11.16479  -1.18257  -1.12219  -1.05422  -1.02872
 Alpha  occ. eigenvalues --   -0.99197  -0.93884  -0.84972  -0.82220  -0.81707
 Alpha  occ. eigenvalues --   -0.70898  -0.69882  -0.67185  -0.62412  -0.61739
 Alpha  occ. eigenvalues --   -0.59476  -0.58568  -0.58155  -0.55625  -0.54108
 Alpha  occ. eigenvalues --   -0.53233  -0.51256  -0.48123  -0.47057  -0.44396
 Alpha  occ. eigenvalues --   -0.38581  -0.31671  -0.28993
 Alpha virt. eigenvalues --    0.10463   0.13427   0.19936   0.26593   0.28185
 Alpha virt. eigenvalues --    0.28329   0.29216   0.31204   0.33428   0.35610
 Alpha virt. eigenvalues --    0.36308   0.36915   0.37209   0.39455   0.43332

 Mulliken charges:
               1
     1  C   -0.241093
     2  C   -0.193886
     3  C   -0.102215
     4  C   -0.084512
     5  C   -0.197436
     6  C   -0.237239
     7  H    0.239319
     8  H    0.239450
     9  H    0.238825
    10  C   -0.187706
    11  C   -0.194494
    12  H    0.238456
    13  H    0.239813
    14  C   -0.069463
    15  C   -0.226166
    16  H    0.232916
    17  H    0.236490
    18  C   -0.585165
    19  H    0.220382
    20  H    0.220390
    21  H    0.213336
 Sum of Mulliken charges =  -0.00000

 Dipole moment (field-independent basis, Debye):
    X=              0.4082    Y=              0.0132    Z=              0.0001  Tot=              0.4084
 Quadrupole moment (field-independent basis, Debye-Ang):
   XX=            -56.3462   YY=            -57.6224   ZZ=            -72.8058
   XY=             -0.0681   XZ=              0.0001   YZ=              0.0000

 Normal termination of Gaussian 16 at Mon Jun  9 19:42:41 2025.
