 Gaussian 16, Revision B.01,
 Gaussian 16:  EM64L-G16RevB.01 20-Dec-2017

 -------------------------------------
 # hf/3-21g pop=full geom=connectivity
 -------------------------------------

 -------
 BF4- sp
 -------
 Symbolic Z-matrix:
 Charge = -1 Multiplicity = 1

                         Standard orientation:
 ---------------------------------------------------------------------
 Center     Atomic      Atomic             Coordinates (Angstroms)
 Number     Number       Type             X           Y           Z
 ---------------------------------------------------------------------
      1          5           0        0.000000    0.000000    0.000000
      2          9           0        0.809789    0.809789    0.809789
      3          9           0       -0.809789   -0.809789    0.809789
      4          9           0        0.809789   -0.809789   -0.809789
      5          9           0       -0.809789    0.809789   -0.809789
 ---------------------------------------------------------------------

 SCF Done:  E(RHF) =  -420.492469288     A.U. after    9 cycles

 The electronic state is 1-A1.
 Alpha  occ. eigenvalues --  -25.88601 -25.88485 -25.88485 -25.88485  -7.45678
 Alpha  occ. eigenvalues --   -1.36511  -1.29898  -1.29898  -1.29898  -0.54801
 Alpha  occ. eigenvalues --   -0.47968  -0.47968  -0.47968  -0.39111  -0.39111
 Alpha  occ. eigenvalues --   -0.35812  -0.35812  -0.35812  -0.33770  -0.33770
 Alpha  occ. eigenvalues --   -0.33770
 Alpha virt. eigenvalues --    0.67089   0.67856   0.67856   0.67856   0.98841
 Alpha virt. eigenvalues --    0.98841   0.98841   1.16214   2.37210   2.37210
 Alpha virt. eigenvalues --    2.59774   2.59774   2.59774   2.61919   2.61919

 Mulliken charges:
               1
     1  B    1.099460
     2  F   -0.524865
     3  F   -0.524865
     4  F   -0.524865
     5  F   -0.524865
 Sum of Mulliken charges =  -1.00000

 Dipole moment (field-independent basis, Debye):
    X=              0.0000    Y=              0.0000    Z=             -0.0000  Tot=              0.0000
 Quadrupole moment (field-independent basis, Debye-Ang):
   XX=            -29.9432   YY=            -29.9432   ZZ=            -29.9432
   XY=              0.0000   XZ=              0.0000   YZ=              0.0000

 Normal termination of Gaussian 16 at Mon Jun 16 19:48:59 2025.
