 Gaussian 16, Revision B.01,
 Gaussian 16:  EM64L-G16RevB.01 20-Dec-2017

 ----------------------------------------------
 # opt freq hf/3-21g pop=full geom=connectivity
 ----------------------------------------------

 --------
 BF4- opt
 --------
 Symbolic Z-matrix:
 Charge = -1 Multiplicity = 1

 SCF Done:  E(RHF) =  -420.481388231     A.U. after    9 cycles
 SCF Done:  E(RHF) =  -420.492251820     A.U. after    9 cycles
 SCF Done:  E(RHF) =  -420.492469288     A.U. after    7 cycles
 Optimization completed.
    -- Stationary point found.
 Normal termination of Gaussian 16 at Mon Jun 16 19:48:18 2025.

 --------------------------------------------------------------
 #N Geom=AllCheck Guess=TCheck SCRF=Check GenChk RHF/3-21G Freq
 --------------------------------------------------------------

 Structure from the checkpoint file:  "BF4_ion_opt.chk"
 --------
 BF4- opt
 --------
 Charge = -1 Multiplicity = 1

                         Standard orientation:
 ---------------------------------------------------------------------
 Center     Atomic      Atomic             Coordinates (Angstroms)
 Number     Number       Type             X           Y           Z
 ---------------------------------------------------------------------
      1          5           0        0.000000    0.000000    0.000000
      2          9           0       -0.809789   -0.809789    0.809789
      3          9           0        0.809789    0.809789    0.809789
      4          9           0       -0.809789    0.809789   -0.809789
      5          9           0        0.809789   -0.809789   -0.809789
 ---------------------------------------------------------------------

 SCF Done:  E(RHF) =  -420.492469288     A.U. after    1 cycles

 Unable to determine electronic state:  an orbital has unidentified symmetry.
 Alpha  occ. eigenvalues --  -25.88601 -25.88485 -25.88485 -25.88485  -7.45678
 Alpha  occ. eigenvalues --   -1.36511  -1.29898  -1.29898  -1.29898  -0.54801
 Alpha  occ. eigenvalues --   -0.47968  -0.47968  -0.47968  -0.39111  -0.39111
 Alpha  occ. eigenvalues --   -0.35812  -0.35812  -0.35812  -0.33770  -0.33770
 Alpha  occ. eigenvalues --   -0.33770
 Alpha virt. eigenvalues --    0.67089   0.67856   0.67856   0.67856   0.98841
 Alpha virt. eigenvalues --    0.98841   0.98841   1.16214   2.37210   2.37210
 Alpha virt. eigenvalues --    2.59774   2.59774   2.59774   2.61919   2.61919

 Mulliken charges:
               1
     1  B    1.099460
     2  F   -0.524865
     3  F   -0.524865
     4  F   -0.524865
     5  F   -0.524865
 Sum of Mulliken charges =  -1.00000

 Dipole moment (field-independent basis, Debye):
    X=              0.0000    Y=             -0.0000    Z=              0.0000  Tot=              0.0000
 Quadrupole moment (field-independent basis, Debye-Ang):
   XX=            -29.9432   YY=            -29.9432   ZZ=            -29.9432
   XY=             -0.0000   XZ=             -0.0000   YZ=              0.0000

  Exact polarizability:   7.901   0.000   7.901  -0.000  -0.000   7.901
 Approx polarizability:   6.629   0.000   6.629  -0.000  -0.000   6.629

                      1                      2                      3
                     T2                     T2                     ?A
 Frequencies --    375.1561               375.1561               560.6628
 Red. masses --     18.9984                18.9984                17.8365
 Frc consts  --      1.5754                 1.5754                 3.3034
 IR Inten    --      0.0000                 0.0000                20.0819
 Raman Activ --      0.3944                 0.3944                 0.6537

                      4                      5                      6
                     ?A                     ?A                     T2
 Frequencies --    560.6628               560.6628               854.4260
 Red. masses --     17.8365                17.8365                18.9984
 Frc consts  --      3.3034                 3.3034                 8.1718
 IR Inten    --     20.0819                20.0819                 0.0000
 Raman Activ --      0.6537                 0.6537                 1.5249

                      7                      8                      9
                     ?A                     ?A                     ?A
 Frequencies --   1358.1567              1358.1567              1358.1567
 Red. masses --     12.1109                12.1109                12.1109
 Frc consts  --     13.1622                13.1622                13.1622
 IR Inten    --    403.1538               403.1538               403.1538
 Raman Activ --      0.0262                 0.0262                 0.0262

 - Thermochemistry -
 -------------------
 Temperature   298.150 Kelvin.  Pressure   1.00000 Atm.
 Atom     1 has atomic number  5 and mass  11.00931

 Molecular mass:    87.00292 amu.
 Principal axes and moments of inertia in atomic units:
                           1         2         3
     Eigenvalues --   355.91661 355.91661 355.91661
           X            0.69275   0.71821   0.06530
           Y            0.69684  -0.68995   0.19589
           Z           -0.18574   0.09020   0.97845
 This molecule is a spherical top.
 Rotational symmetry number 12.
 Rotational temperatures (Kelvin)      0.24335     0.24335     0.24335
 Rotational constants (GHZ):           5.07069     5.07069     5.07069
 Zero-point vibrational energy      44029.7 (Joules/Mol)
                                   10.52336 (Kcal/Mol)
 Warning -- explicit consideration of   5 degrees of freedom as
           vibrations may cause significant error
 Vibrational temperatures:    539.77   539.77   806.67   806.67   806.67
          (Kelvin)           1229.33  1954.08  1954.08  1954.08

 Zero-point correction=                           0.016770 (Hartree/Particle)
 Thermal correction to Energy=                    0.020911
 Thermal correction to Enthalpy=                  0.021855
 Thermal correction to Gibbs Free Energy=        -0.008361
 Sum of electronic and zero-point Energies=           -420.475699
 Sum of electronic and thermal Energies=              -420.471559
 Sum of electronic and thermal Enthalpies=            -420.470614
 Sum of electronic and thermal Free Energies=         -420.500831

                     E (Thermal)             CV                S
                      KCal/Mol        Cal/Mol-Kelvin    Cal/Mol-Kelvin
 Total                   13.122             13.288             63.596
 Electronic               0.000              0.000              0.000
 Translational            0.889              2.981             39.303
 Rotational               0.889              2.981             20.376
 Vibrational             11.344              7.326              3.916
 Vibration     1          0.746              1.523              1.059
 Vibration     2          0.746              1.523              1.059
 Vibration     3          0.916              1.116              0.523
 Vibration     4          0.916              1.116              0.523
 Vibration     5          0.916              1.116              0.523

 Optimization completed.
    -- Stationary point found.
 Normal termination of Gaussian 16 at Mon Jun 16 19:48:19 2025.
