 Gaussian 16, Revision B.01,
 Gaussian 16:  EM64L-G16RevB.01 20-Dec-2017

 -------------------------------------
 # hf/3-21g pop=full geom=connectivity
 -------------------------------------

 -------------------
 Title Card Required
 -------------------
 Symbolic Z-matrix:
 Charge =  0 Multiplicity = 1

                         Standard orientation:
 ---------------------------------------------------------------------
 Center     Atomic      Atomic             Coordinates (Angstroms)
 Number     Number       Type             X           Y           Z
 ---------------------------------------------------------------------
      1          5           0       -0.000000   -0.000000    0.155106
      2          1           0        0.000000    1.169881   -0.258510
      3          1           0        1.013147   -0.584941   -0.258510
      4          1           0       -1.013147   -0.584941   -0.258510
 ---------------------------------------------------------------------

 SCF Done:  E(RHF) =  -26.1961117322     A.U. after    8 cycles

 The electronic state is 1-A1.
 Alpha  occ. eigenvalues --   -7.59606  -0.69987  -0.47278  -0.47278
 Alpha virt. eigenvalues --    0.04238   0.29716   0.29716   0.37404   0.60581
 Alpha virt. eigenvalues --    0.60581   0.66202   0.85210   1.37111   1.37111
 Alpha virt. eigenvalues --    1.37333

 Mulliken charges:
               1
     1  B    0.028950
     2  H   -0.009650
     3  H   -0.009650
     4  H   -0.009650
 Sum of Mulliken charges =   0.00000

 Dipole moment (field-independent basis, Debye):
    X=             -0.0000    Y=             -0.0000    Z=              1.0708  Tot=              1.0708
 Quadrupole moment (field-independent basis, Debye-Ang):
   XX=            -10.0425   YY=            -10.0425   ZZ=             -7.0605
   XY=             -0.0000   XZ=              0.0000   YZ=              0.0000

 Normal termination of Gaussian 16 at Fri Jun 13 20:37:05 2025.
