 Gaussian 16, Revision B.01,
 Gaussian 16:  EM64L-G16RevB.01 20-Dec-2017

 -------------------------------------
 # hf/3-21g pop=full geom=connectivity
 -------------------------------------

 -------------------------------
 NH3 - AlCl3 Adduct Optimisation
 -------------------------------
 Symbolic Z-matrix:
 Charge =  0 Multiplicity = 1

                         Standard orientation:
 ---------------------------------------------------------------------
 Center     Atomic      Atomic             Coordinates (Angstroms)
 Number     Number       Type             X           Y           Z
 ---------------------------------------------------------------------
      1         13           0        0.000141   -0.000037    0.331423
      2         17           0       -1.064935    1.877604   -0.084315
      3         17           0       -1.093879   -1.860876   -0.084603
      4         17           0        2.158706   -0.016699   -0.084522
 ---------------------------------------------------------------------

 SCF Done:  E(RHF) =  -1612.68555884     A.U. after   10 cycles

 The electronic state is 1-A.
 Alpha  occ. eigenvalues -- -104.13369-104.13361-104.13360 -58.24805 -10.52534
 Alpha  occ. eigenvalues --  -10.52506 -10.52505  -7.98806  -7.98804  -7.98794
 Alpha  occ. eigenvalues --   -7.98505  -7.98490  -7.98490  -7.98471  -7.98467
 Alpha  occ. eigenvalues --   -7.98466  -5.04581  -3.35007  -3.35007  -3.34983
 Alpha  occ. eigenvalues --   -1.12478  -1.10627  -1.10625  -0.62180  -0.54181
 Alpha  occ. eigenvalues --   -0.54180  -0.51583  -0.49155  -0.49155  -0.48809
 Alpha  occ. eigenvalues --   -0.48808  -0.47916
 Alpha virt. eigenvalues --   -0.04409   0.07657   0.12995   0.12999   0.23119
 Alpha virt. eigenvalues --    0.29004   0.32580   0.32582   0.72585   0.72586
 Alpha virt. eigenvalues --    0.75808   0.77109   0.77112   0.84993   0.85272

 Mulliken charges:
               1
     1  Al   1.387249
     2  Cl  -0.462426
     3  Cl  -0.462421
     4  Cl  -0.462402
 Sum of Mulliken charges =  -0.00000

 Dipole moment (field-independent basis, Debye):
    X=              0.0014    Y=             -0.0003    Z=              2.7756  Tot=              2.7756
 Quadrupole moment (field-independent basis, Debye-Ang):
   XX=            -62.2711   YY=            -62.2683   ZZ=            -46.7583
   XY=              0.0000   XZ=              0.0007   YZ=             -0.0012

 Normal termination of Gaussian 16 at Fri Jun 13 22:54:51 2025.
