 Gaussian 16, Revision B.01,
 Gaussian 16:  EM64L-G16RevB.01 20-Dec-2017

 ----------------------------------------------
 # opt freq hf/3-21g pop=full geom=connectivity
 ----------------------------------------------

 -------------------------------
 NH3 - AlCl3 Adduct Optimisation
 -------------------------------
 Symbolic Z-matrix:
 Charge =  0 Multiplicity = 1

 SCF Done:  E(RHF) =  -1668.62083484     A.U. after   11 cycles
 SCF Done:  E(RHF) =  -1668.66548081     A.U. after   11 cycles
 SCF Done:  E(RHF) =  -1668.66465377     A.U. after   12 cycles
 SCF Done:  E(RHF) =  -1668.67409930     A.U. after   10 cycles
 SCF Done:  E(RHF) =  -1668.67443534     A.U. after    9 cycles
 SCF Done:  E(RHF) =  -1668.67451201     A.U. after    8 cycles
 SCF Done:  E(RHF) =  -1668.67459252     A.U. after    9 cycles
 SCF Done:  E(RHF) =  -1668.67470731     A.U. after    9 cycles
 SCF Done:  E(RHF) =  -1668.67485675     A.U. after   10 cycles
 SCF Done:  E(RHF) =  -1668.67496106     A.U. after    9 cycles
 SCF Done:  E(RHF) =  -1668.67501180     A.U. after   10 cycles
 SCF Done:  E(RHF) =  -1668.67503139     A.U. after    9 cycles
 SCF Done:  E(RHF) =  -1668.67503595     A.U. after    8 cycles
 SCF Done:  E(RHF) =  -1668.67503686     A.U. after    7 cycles
 SCF Done:  E(RHF) =  -1668.67503702     A.U. after    7 cycles
 Optimization completed.
    -- Stationary point found.
 Normal termination of Gaussian 16 at Fri Jun 13 22:25:52 2025.

 --------------------------------------------------------------
 #N Geom=AllCheck Guess=TCheck SCRF=Check GenChk RHF/3-21G Freq
 --------------------------------------------------------------

 Structure from the checkpoint file:  "NH3_AlCl3_opt.chk"
 -------------------------------
 NH3 - AlCl3 Adduct Optimisation
 -------------------------------
 Charge =  0 Multiplicity = 1

                         Standard orientation:
 ---------------------------------------------------------------------
 Center     Atomic      Atomic             Coordinates (Angstroms)
 Number     Number       Type             X           Y           Z
 ---------------------------------------------------------------------
      1         13           0        0.000132    0.000023    0.005271
      2         17           0       -1.065787    1.877185   -0.410467
      3         17           0       -1.093053   -1.861308   -0.410755
      4         17           0        2.158705   -0.015671   -0.410674
      5          7           0        0.000064   -0.000358    1.981641
      6          1           0       -0.952340    0.006269    2.334034
      7          1           0        0.470428   -0.828586    2.333930
      8          1           0        0.482049    0.821014    2.334260
 ---------------------------------------------------------------------

 SCF Done:  E(RHF) =  -1668.67503702     A.U. after    1 cycles

 The electronic state is 1-A.
 Alpha  occ. eigenvalues -- -104.09399-104.09375-104.09374 -58.19686 -15.63222
 Alpha  occ. eigenvalues --  -10.48578 -10.48500 -10.48499  -7.94814  -7.94813
 Alpha  occ. eigenvalues --   -7.94807  -7.94546  -7.94520  -7.94520  -7.94508
 Alpha  occ. eigenvalues --   -7.94505  -7.94504  -4.99048  -3.29635  -3.29635
 Alpha  occ. eigenvalues --   -3.29436  -1.31069  -1.08934  -1.07194  -1.07192
 Alpha  occ. eigenvalues --   -0.78862  -0.78862  -0.69175  -0.55535  -0.50919
 Alpha  occ. eigenvalues --   -0.50917  -0.47077  -0.46339  -0.46338  -0.45547
 Alpha  occ. eigenvalues --   -0.45546  -0.44596
 Alpha virt. eigenvalues --    0.09964   0.12673   0.17377   0.17382   0.24204
 Alpha virt. eigenvalues --    0.24205   0.25147   0.33003   0.37448   0.37450
 Alpha virt. eigenvalues --    0.39761   0.75353   0.75354   0.78072   0.78075

 Mulliken charges:
               1
     1  Al   1.404018
     2  Cl  -0.552209
     3  Cl  -0.552233
     4  Cl  -0.552193
     5  N   -1.010059
     6  H    0.420900
     7  H    0.420892
     8  H    0.420884
 Sum of Mulliken charges =  -0.00000

 Dipole moment (field-independent basis, Debye):
    X=              0.0014    Y=             -0.0012    Z=              7.9114  Tot=              7.9114
 Quadrupole moment (field-independent basis, Debye-Ang):
   XX=            -71.3542   YY=            -71.3504   ZZ=            -43.6385
   XY=             -0.0003   XZ=              0.0002   YZ=             -0.0036

  Exact polarizability:  49.057  -0.000  49.047  -0.000   0.001  28.968
 Approx polarizability:  39.303  -0.000  39.294  -0.000   0.001  21.245

                      1                      2                      3
                      A                      A                      A
 Frequencies --    121.1188               127.4881               127.5122
 Red. masses --      1.0133                11.3373                11.3356
 Frc consts  --      0.0088                 0.1086                 0.1086
 IR Inten    --      0.0001                16.7151                16.7120
 Raman Activ --      0.0000                 2.1135                 2.1141

                      4                      5                      6
                      A                      A                      A
 Frequencies --    165.3580               165.3823               192.2376
 Red. masses --      4.9312                 4.9293                12.1421
 Frc consts  --      0.0794                 0.0794                 0.2644
 IR Inten    --      0.3728                 0.3712                71.6418
 Raman Activ --      2.0407                 2.0396                 2.1594

                      7                      8                      9
                      A                      A                      A
 Frequencies --    367.4670               549.1345               549.1887
 Red. masses --     21.1016                14.2209                14.2172
 Frc consts  --      1.6788                 2.5266                 2.5264
 IR Inten    --     16.9439               130.0264               130.0255
 Raman Activ --      8.0678                 1.5007                 1.5005

                     10                     11                     12
                      A                      A                      A
 Frequencies --    596.5862               889.5266               889.5447
 Red. masses --      7.0101                 1.2390                 1.2390
 Frc consts  --      1.4700                 0.5776                 0.5776
 IR Inten    --     56.0860               145.5295               145.5102
 Raman Activ --      0.7295                 3.0578                 3.0572

                     13                     14                     15
                      A                      A                      A
 Frequencies --   1556.8997              1840.2181              1840.2315
 Red. masses --      1.1775                 1.0618                 1.0618
 Frc consts  --      1.6816                 2.1185                 2.1185
 IR Inten    --    364.5982                56.9598                56.9601
 Raman Activ --      1.6064                 7.6579                 7.6561

                     16                     17                     18
                      A                      A                      A
 Frequencies --   3555.7294              3659.4085              3659.4560
 Red. masses --      1.0259                 1.0902                 1.0902
 Frc consts  --      7.6420                 8.6014                 8.6016
 IR Inten    --     49.9942                99.0102                99.0079
 Raman Activ --     59.4504                43.2060                43.2044

 - Thermochemistry -
 -------------------
 Temperature   298.150 Kelvin.  Pressure   1.00000 Atm.
 Atom     1 has atomic number 13 and mass  26.98154

 Molecular mass:   148.91465 amu.
 Principal axes and moments of inertia in atomic units:
                           1         2         3
     Eigenvalues --  1194.373981194.641241755.46256
           X            1.00000   0.00012   0.00000
           Y           -0.00012   1.00000  -0.00002
           Z           -0.00000   0.00002   1.00000
 This molecule is an asymmetric top.
 Rotational symmetry number  1.
 Warning -- assumption of classical behavior for rotation
           may cause significant error
 Rotational temperatures (Kelvin)      0.07252     0.07250     0.04934
 Rotational constants (GHZ):           1.51104     1.51070     1.02807
 Zero-point vibrational energy     124725.6 (Joules/Mol)
                                   29.81013 (Kcal/Mol)
 Warning -- explicit consideration of  10 degrees of freedom as
           vibrations may cause significant error
 Vibrational temperatures:    174.26   183.43   183.46   237.91   237.95
          (Kelvin)            276.59   528.70   790.08   790.16   858.35
                             1279.83  1279.86  2240.03  2647.66  2647.68
                             5115.90  5265.07  5265.14

 Zero-point correction=                           0.047505 (Hartree/Particle)
 Thermal correction to Energy=                    0.055210
 Thermal correction to Enthalpy=                  0.056154
 Thermal correction to Gibbs Free Energy=         0.013684
 Sum of electronic and zero-point Energies=          -1668.627532
 Sum of electronic and thermal Energies=             -1668.619827
 Sum of electronic and thermal Enthalpies=           -1668.618883
 Sum of electronic and thermal Free Energies=        -1668.661353

                     E (Thermal)             CV                S
                      KCal/Mol        Cal/Mol-Kelvin    Cal/Mol-Kelvin
 Total                   34.645             23.360             89.385
 Electronic               0.000              0.000              0.000
 Translational            0.889              2.981             40.905
 Rotational               0.889              2.981             29.306
 Vibrational             32.867             17.399             19.174
 Vibration     1          0.609              1.932              3.082
 Vibration     2          0.611              1.926              2.984
 Vibration     3          0.611              1.926              2.983
 Vibration     4          0.624              1.885              2.488
 Vibration     5          0.624              1.885              2.487
 Vibration     6          0.634              1.851              2.206
 Vibration     7          0.740              1.539              1.090
 Vibration     8          0.904              1.142              0.546
 Vibration     9          0.904              1.141              0.546
 Vibration    10          0.954              1.039              0.456

 Optimization completed.
    -- Stationary point found.
 Normal termination of Gaussian 16 at Fri Jun 13 22:25:54 2025.
