 Gaussian 16, Revision B.01,
 Gaussian 16:  EM64L-G16RevB.01 20-Dec-2017

 -------------------------------------
 # hf/3-21g pop=full geom=connectivity
 -------------------------------------

 -------------------------------
 NH3 - AlCl3 Adduct Optimisation
 -------------------------------
 Symbolic Z-matrix:
 Charge =  0 Multiplicity = 1

                         Standard orientation:
 ---------------------------------------------------------------------
 Center     Atomic      Atomic             Coordinates (Angstroms)
 Number     Number       Type             X           Y           Z
 ---------------------------------------------------------------------
      1         13           0        0.000132    0.000023    0.005271
      2         17           0       -1.065468    1.877366   -0.410467
      3         17           0       -1.093369   -1.861122   -0.410755
      4         17           0        2.158702   -0.016037   -0.410674
      5          7           0        0.000064   -0.000358    1.981641
      6          1           0       -0.952339    0.006431    2.334034
      7          1           0        0.470287   -0.828666    2.333930
      8          1           0        0.482188    0.820932    2.334260
 ---------------------------------------------------------------------

 SCF Done:  E(RHF) =  -1668.67503702     A.U. after   11 cycles

 The electronic state is 1-A.
 Alpha  occ. eigenvalues -- -104.09399-104.09375-104.09374 -58.19686 -15.63222
 Alpha  occ. eigenvalues --  -10.48578 -10.48500 -10.48499  -7.94814  -7.94813
 Alpha  occ. eigenvalues --   -7.94807  -7.94546  -7.94520  -7.94520  -7.94508
 Alpha  occ. eigenvalues --   -7.94505  -7.94504  -4.99048  -3.29635  -3.29635
 Alpha  occ. eigenvalues --   -3.29436  -1.31069  -1.08934  -1.07194  -1.07192
 Alpha  occ. eigenvalues --   -0.78862  -0.78862  -0.69175  -0.55535  -0.50919
 Alpha  occ. eigenvalues --   -0.50917  -0.47077  -0.46339  -0.46338  -0.45547
 Alpha  occ. eigenvalues --   -0.45546  -0.44596
 Alpha virt. eigenvalues --    0.09964   0.12673   0.17377   0.17382   0.24204
 Alpha virt. eigenvalues --    0.24205   0.25147   0.33003   0.37448   0.37450
 Alpha virt. eigenvalues --    0.39761   0.75353   0.75354   0.78072   0.78075

 Mulliken charges:
               1
     1  Al   1.404018
     2  Cl  -0.552209
     3  Cl  -0.552233
     4  Cl  -0.552193
     5  N   -1.010059
     6  H    0.420900
     7  H    0.420892
     8  H    0.420884
 Sum of Mulliken charges =  -0.00000

 Dipole moment (field-independent basis, Debye):
    X=              0.0014    Y=             -0.0012    Z=              7.9114  Tot=              7.9114
 Quadrupole moment (field-independent basis, Debye-Ang):
   XX=            -71.3542   YY=            -71.3504   ZZ=            -43.6385
   XY=             -0.0003   XZ=              0.0002   YZ=             -0.0036

 Normal termination of Gaussian 16 at Fri Jun 13 22:27:36 2025.
