 Gaussian 16, Revision B.01,
 Gaussian 16:  EM64L-G16RevB.01 20-Dec-2017

 -------------------------------------
 # hf/3-21g pop=full geom=connectivity
 -------------------------------------

 -------------------------------
 NH3 - AlCl3 Adduct Optimisation
 -------------------------------
 Symbolic Z-matrix:
 Charge =  0 Multiplicity = 1

                         Standard orientation:
 ---------------------------------------------------------------------
 Center     Atomic      Atomic             Coordinates (Angstroms)
 Number     Number       Type             X           Y           Z
 ---------------------------------------------------------------------
      1          7           0        0.000002   -0.000000   -0.105730
      2          1           0       -0.227942    0.924733    0.246702
      3          1           0       -0.686889   -0.659761    0.246701
      4          1           0        0.914814   -0.264969    0.246708
 ---------------------------------------------------------------------

 SCF Done:  E(RHF) =  -55.8713393093     A.U. after   10 cycles

 The electronic state is 1-A.
 Alpha  occ. eigenvalues --  -15.44265  -1.12556  -0.61233  -0.61233  -0.39903
 Alpha virt. eigenvalues --    0.26862   0.37027   0.37027   1.16401   1.16402
 Alpha virt. eigenvalues --    1.32106   1.41678   1.58693   1.58693   2.59031

 Mulliken charges:
               1
     1  N   -0.847536
     2  H    0.282512
     3  H    0.282511
     4  H    0.282513
 Sum of Mulliken charges =   0.00000

 Dipole moment (field-independent basis, Debye):
    X=             -0.0000    Y=              0.0000    Z=              2.0543  Tot=              2.0543
 Quadrupole moment (field-independent basis, Debye-Ang):
   XX=             -5.9221   YY=             -5.9222   ZZ=             -8.6236
   XY=             -0.0000   XZ=              0.0000   YZ=              0.0000

 Normal termination of Gaussian 16 at Fri Jun 13 23:01:56 2025.
