 Gaussian 16, Revision B.01,
 Gaussian 16:  EM64L-G16RevB.01 20-Dec-2017

 -------------------------------------
 # hf/3-21g pop=full geom=connectivity
 -------------------------------------

 -------------------
 Title Card Required
 -------------------
 Symbolic Z-matrix:
 Charge =  0 Multiplicity = 1

                         Standard orientation:
 ---------------------------------------------------------------------
 Center     Atomic      Atomic             Coordinates (Angstroms)
 Number     Number       Type             X           Y           Z
 ---------------------------------------------------------------------
      1          5           0       -0.000119   -0.000036   -0.113445
      2          1           0        0.667529   -0.960981    0.189041
      3          1           0        0.499120    1.058296    0.189003
      4          1           0       -1.166056   -0.097137    0.189179
 ---------------------------------------------------------------------

 SCF Done:  E(RHF) =  -26.2156439490     A.U. after    8 cycles

 The electronic state is 1-A.
 Alpha  occ. eigenvalues --   -7.58372  -0.70500  -0.48593  -0.48578
 Alpha virt. eigenvalues --    0.05724   0.30990   0.31003   0.36919   0.60209
 Alpha virt. eigenvalues --    0.60215   0.67092   0.81158   1.38115   1.39973
 Alpha virt. eigenvalues --    1.39996

 Mulliken charges:
               1
     1  B    0.076426
     2  H   -0.025480
     3  H   -0.025485
     4  H   -0.025461
 Sum of Mulliken charges =  -0.00000

 Dipole moment (field-independent basis, Debye):
    X=             -0.0006    Y=             -0.0002    Z=             -0.8248  Tot=              0.8248
 Quadrupole moment (field-independent basis, Debye-Ang):
   XX=             -9.8525   YY=             -9.8539   ZZ=             -7.1034
   XY=             -0.0000   XZ=              0.0004   YZ=              0.0001

 Normal termination of Gaussian 16 at Tue Jun 17 15:07:51 2025.
