 Gaussian 16, Revision B.01,
 Gaussian 16:  EM64L-G16RevB.01 20-Dec-2017

 -------------------------------------
 # hf/3-21g pop=full geom=connectivity
 -------------------------------------

 -------------------
 Title Card Required
 -------------------
 Symbolic Z-matrix:
 Charge =  0 Multiplicity = 1

                         Standard orientation:
 ---------------------------------------------------------------------
 Center     Atomic      Atomic             Coordinates (Angstroms)
 Number     Number       Type             X           Y           Z
 ---------------------------------------------------------------------
      1          7           0       -0.000026   -0.000000   -0.098812
      2          1           0        0.323730    0.897790    0.230547
      3          1           0        0.615803   -0.729174    0.230535
      4          1           0       -0.939352   -0.168612    0.230603
 ---------------------------------------------------------------------

 SCF Done:  E(RHF) =  -55.8718589521     A.U. after   10 cycles

 The electronic state is 1-A.
 Alpha  occ. eigenvalues --  -15.43835  -1.12451  -0.61574  -0.61569  -0.39559
 Alpha virt. eigenvalues --    0.27134   0.37319   0.37321   1.17115   1.17125
 Alpha virt. eigenvalues --    1.31305   1.41491   1.59159   1.59162   2.58501

 Mulliken charges:
               1
     1  N   -0.857567
     2  H    0.285851
     3  H    0.285842
     4  H    0.285874
 Sum of Mulliken charges =  -0.00000

 Dipole moment (field-independent basis, Debye):
    X=              0.0002    Y=              0.0000    Z=              1.9631  Tot=              1.9631
 Quadrupole moment (field-independent basis, Debye-Ang):
   XX=             -5.8555   YY=             -5.8561   ZZ=             -8.6433
   XY=              0.0001   XZ=             -0.0001   YZ=              0.0000

 Normal termination of Gaussian 16 at Tue Jun 17 15:09:01 2025.
