 Gaussian 16, Revision B.01,
 Gaussian 16:  EM64L-G16RevB.01 20-Dec-2017

 ----------------------------------------------
 # opt freq hf/3-21g pop=full geom=connectivity
 ----------------------------------------------

 -------------------
 Title Card Required
 -------------------
 Symbolic Z-matrix:
 Charge =  0 Multiplicity = 1

 SCF Done:  E(RHF) =  -81.8160772589     A.U. after   13 cycles
 SCF Done:  E(RHF) =  -81.9848810816     A.U. after   12 cycles
 SCF Done:  E(RHF) =  -82.1270301123     A.U. after   11 cycles
 SCF Done:  E(RHF) =  -82.1531014519     A.U. after   11 cycles
 SCF Done:  E(RHF) =  -82.1617248908     A.U. after   10 cycles
 SCF Done:  E(RHF) =  -82.1657655978     A.U. after   10 cycles
 SCF Done:  E(RHF) =  -82.1662098505     A.U. after    9 cycles
 SCF Done:  E(RHF) =  -82.1662828197     A.U. after    9 cycles
 SCF Done:  E(RHF) =  -82.1662962633     A.U. after    7 cycles
 SCF Done:  E(RHF) =  -82.1663067755     A.U. after    7 cycles
 SCF Done:  E(RHF) =  -82.1663121119     A.U. after    8 cycles
 SCF Done:  E(RHF) =  -82.1663132862     A.U. after    7 cycles
 Optimization completed.
    -- Stationary point found.
 Normal termination of Gaussian 16 at Tue Jun 17 14:59:50 2025.

 --------------------------------------------------------------
 #N Geom=AllCheck Guess=TCheck SCRF=Check GenChk RHF/3-21G Freq
 --------------------------------------------------------------

 Structure from the checkpoint file:  "NH3_BH3_adduct_opt.chk"
 -------------------
 Title Card Required
 -------------------
 Charge =  0 Multiplicity = 1

                         Standard orientation:
 ---------------------------------------------------------------------
 Center     Atomic      Atomic             Coordinates (Angstroms)
 Number     Number       Type             X           Y           Z
 ---------------------------------------------------------------------
      1          7           0        0.757012   -0.000059    0.000005
      2          1           0        1.087273   -0.334861    0.893402
      3          1           0        1.085366    0.941785   -0.156594
      4          1           0        1.086517   -0.605972   -0.737269
      5          5           0       -0.956335   -0.000185    0.000094
      6          1           0       -1.258772    0.743395    0.903581
      7          1           0       -1.258813    0.411352   -1.095316
      8          1           0       -1.258978   -1.154359    0.191689
 ---------------------------------------------------------------------

 SCF Done:  E(RHF) =  -82.1663132862     A.U. after    1 cycles

 The electronic state is 1-A.
 Alpha  occ. eigenvalues --  -15.56670  -7.48357  -1.24500  -0.72731  -0.72726
 Alpha  occ. eigenvalues --   -0.69703  -0.50149  -0.40830  -0.40817
 Alpha virt. eigenvalues --    0.20676   0.29783   0.29784   0.33302   0.37688
 Alpha virt. eigenvalues --    0.37708   0.48176   0.68325   0.68329   0.74831
 Alpha virt. eigenvalues --    1.04604   1.16043   1.16050   1.24113   1.43331

 Mulliken charges:
               1
     1  N   -0.859075
     2  H    0.372075
     3  H    0.372133
     4  H    0.372112
     5  B    0.001097
     6  H   -0.086121
     7  H   -0.086117
     8  H   -0.086105
 Sum of Mulliken charges =   0.00000

 Dipole moment (field-independent basis, Debye):
    X=              5.7270    Y=              0.0010    Z=             -0.0007  Tot=              5.7270
 Quadrupole moment (field-independent basis, Debye-Ang):
   XX=            -16.5485   YY=            -16.0960   ZZ=            -16.0966
   XY=             -0.0004   XZ=              0.0007   YZ=              0.0003

  Exact polarizability:  17.626  -0.004  21.514   0.003  -0.000  21.511
 Approx polarizability:  12.529  -0.003  17.765   0.003   0.000  17.762

                      1                      2                      3
                      A                      A                      A
 Frequencies --    250.4919               639.8863               709.6980
 Red. masses --      1.0078                 5.3695                 1.0402
 Frc consts  --      0.0373                 1.2954                 0.3087
 IR Inten    --      0.0000                29.1858                 2.5128
 Raman Activ --      0.0000                 1.7012                 0.7254

                      4                      5                      6
                      A                      A                      A
 Frequencies --    709.9570              1145.6516              1145.7176
 Red. masses --      1.0402                 1.2936                 1.2934
 Frc consts  --      0.3089                 1.0004                 1.0004
 IR Inten    --      2.5147                65.8829                65.8799
 Raman Activ --      0.7299                20.0892                20.1039

                      7                      8                      9
                      A                      A                      A
 Frequencies --   1276.3086              1291.7119              1292.0610
 Red. masses --      1.1366                 1.0722                 1.0724
 Frc consts  --      1.0909                 1.0541                 1.0548
 IR Inten    --    172.2048                11.0738                11.1325
 Raman Activ --     11.0134                20.0907                20.0920

                     10                     11                     12
                      A                      A                      A
 Frequencies --   1464.7208              1855.0020              1855.1634
 Red. masses --      1.1760                 1.0645                 1.0645
 Frc consts  --      1.4865                 2.1582                 2.1586
 IR Inten    --    237.0552                43.6297                43.6235
 Raman Activ --      3.5582                10.2490                10.2478

                     13                     14                     15
                      A                      A                      A
 Frequencies --   2554.0681              2605.3229              2606.1626
 Red. masses --      1.0205                 1.1169                 1.1169
 Frc consts  --      3.9222                 4.4666                 4.4698
 IR Inten    --     69.6257               271.4416               271.3580
 Raman Activ --    129.5576                45.8448                45.7600

                     16                     17                     18
                      A                      A                      A
 Frequencies --   3606.7327              3722.0229              3722.5243
 Red. masses --      1.0232                 1.0924                 1.0925
 Frc consts  --      7.8423                 8.9167                 8.9193
 IR Inten    --     14.2941                54.2122                54.2223
 Raman Activ --     72.3140                43.9457                43.9814

 - Thermochemistry -
 -------------------
 Temperature   298.150 Kelvin.  Pressure   1.00000 Atm.
 Atom     1 has atomic number  7 and mass  14.00307

 Molecular mass:    31.05933 amu.
 Principal axes and moments of inertia in atomic units:
                           1         2         3
     Eigenvalues --    24.61671 106.74882 106.75426
           X            1.00000  -0.00003   0.00002
           Y            0.00003   1.00000   0.00004
           Z           -0.00002  -0.00004   1.00000
 This molecule is an asymmetric top.
 Rotational symmetry number  1.
 Rotational temperatures (Kelvin)      3.51850     0.81138     0.81134
 Rotational constants (GHZ):          73.31367    16.90643    16.90557
 Zero-point vibrational energy     194113.3 (Joules/Mol)
                                   46.39418 (Kcal/Mol)
 Warning -- explicit consideration of   1 degrees of freedom as
           vibrations may cause significant error
 Vibrational temperatures:    360.40   920.65  1021.10  1021.47  1648.34
          (Kelvin)           1648.43  1836.32  1858.49  1858.99  2107.41
                             2668.93  2669.17  3674.73  3748.48  3749.69
                             5189.28  5355.16  5355.88

 Zero-point correction=                           0.073934 (Hartree/Particle)
 Thermal correction to Energy=                    0.077694
 Thermal correction to Enthalpy=                  0.078638
 Thermal correction to Gibbs Free Energy=         0.050410
 Sum of electronic and zero-point Energies=            -82.092379
 Sum of electronic and thermal Energies=               -82.088619
 Sum of electronic and thermal Enthalpies=             -82.087675
 Sum of electronic and thermal Free Energies=          -82.115903

                     E (Thermal)             CV                S
                      KCal/Mol        Cal/Mol-Kelvin    Cal/Mol-Kelvin
 Total                   48.754             11.373             59.411
 Electronic               0.000              0.000              0.000
 Translational            0.889              2.981             36.233
 Rotational               0.889              2.981             20.267
 Vibrational             46.976              5.411              2.911
 Vibration     1          0.663              1.762              1.727

 Optimization completed.
    -- Stationary point found.
 Normal termination of Gaussian 16 at Tue Jun 17 14:59:51 2025.
