 Gaussian 16, Revision B.01,
 Gaussian 16:  EM64L-G16RevB.01 20-Dec-2017

 -------------------------------------
 # hf/3-21g pop=full geom=connectivity
 -------------------------------------

 -------------------
 Title Card Required
 -------------------
 Symbolic Z-matrix:
 Charge =  0 Multiplicity = 1

                         Standard orientation:
 ---------------------------------------------------------------------
 Center     Atomic      Atomic             Coordinates (Angstroms)
 Number     Number       Type             X           Y           Z
 ---------------------------------------------------------------------
      1          7           0        0.757012    0.000059   -0.000005
      2          1           0        1.087273    0.334861   -0.893402
      3          1           0        1.085366   -0.941785    0.156594
      4          1           0        1.086517    0.605972    0.737269
      5          5           0       -0.956335    0.000185   -0.000094
      6          1           0       -1.258772   -0.743395   -0.903581
      7          1           0       -1.258813   -0.411352    1.095316
      8          1           0       -1.258978    1.154359   -0.191689
 ---------------------------------------------------------------------

 SCF Done:  E(RHF) =  -82.1663132864     A.U. after   10 cycles

 The electronic state is 1-A.
 Alpha  occ. eigenvalues --  -15.56670  -7.48357  -1.24500  -0.72731  -0.72726
 Alpha  occ. eigenvalues --   -0.69703  -0.50149  -0.40830  -0.40817
 Alpha virt. eigenvalues --    0.20676   0.29783   0.29784   0.33302   0.37688
 Alpha virt. eigenvalues --    0.37708   0.48176   0.68325   0.68329   0.74831
 Alpha virt. eigenvalues --    1.04604   1.16043   1.16050   1.24113   1.43331

 Mulliken charges:
               1
     1  N   -0.859075
     2  H    0.372075
     3  H    0.372133
     4  H    0.372112
     5  B    0.001097
     6  H   -0.086121
     7  H   -0.086117
     8  H   -0.086105
 Sum of Mulliken charges =  -0.00000

 Dipole moment (field-independent basis, Debye):
    X=              5.7270    Y=             -0.0010    Z=              0.0007  Tot=              5.7270
 Quadrupole moment (field-independent basis, Debye-Ang):
   XX=            -16.5485   YY=            -16.0959   ZZ=            -16.0966
   XY=              0.0004   XZ=             -0.0007   YZ=              0.0003

 Normal termination of Gaussian 16 at Tue Jun 17 15:01:06 2025.
