 Gaussian 16, Revision B.01,
 Gaussian 16:  EM64L-G16RevB.01 20-Dec-2017

 -------------------------------------
 # hf/3-21g pop=full geom=connectivity
 -------------------------------------

 -------------------
 Title Card Required
 -------------------
 Symbolic Z-matrix:
 Charge =  1 Multiplicity = 2

                         Standard orientation:
 ---------------------------------------------------------------------
 Center     Atomic      Atomic             Coordinates (Angstroms)
 Number     Number       Type             X           Y           Z
 ---------------------------------------------------------------------
      1          5           0       -0.000000    0.000000    0.155106
      2          1           0        0.000000    1.169881   -0.258510
      3          1           0        1.013147   -0.584941   -0.258510
      4          1           0       -1.013147   -0.584941   -0.258510
 ---------------------------------------------------------------------

 SCF Done:  E(UHF) =  -25.7560314604     A.U. after   14 cycles

 Unable to determine electronic state:  an orbital has unidentified symmetry.
 Alpha  occ. eigenvalues --   -7.98036  -1.10661  -0.89657  -0.81548
 Alpha virt. eigenvalues --   -0.26751  -0.02346   0.00798   0.06778   0.26114
 Alpha virt. eigenvalues --    0.28907   0.34140   0.52871   0.91499   1.04579
 Alpha virt. eigenvalues --    1.04880
  Beta  occ. eigenvalues --   -7.97709  -0.97687  -0.78193
  Beta virt. eigenvalues --   -0.40911  -0.25723   0.02980   0.04272   0.09612
  Beta virt. eigenvalues --    0.28986   0.32538   0.34699   0.54932   1.03282
  Beta virt. eigenvalues --    1.07547   1.07596

 Mulliken charges and spin densities:
               1          2
     1  B    0.207642   0.177856
     2  H    0.357280   0.587712
     3  H    0.217539   0.117216
     4  H    0.217539   0.117216
 Sum of Mulliken charges =   1.00000   1.00000

 Dipole moment (field-independent basis, Debye):
    X=             -0.0000    Y=              1.1573    Z=              0.5956  Tot=              1.3015
 Quadrupole moment (field-independent basis, Debye-Ang):
   XX=             -6.4922   YY=             -3.6278   ZZ=             -5.2420
   XY=             -0.0000   XZ=              0.0000   YZ=             -0.0921

 Normal termination of Gaussian 16 at Fri Jun 13 20:56:07 2025.
