 Gaussian 16, Revision B.01,
 Gaussian 16:  EM64L-G16RevB.01 20-Dec-2017

 -----------------------------------------
 # opt freq am1 pop=full geom=connectivity
 -----------------------------------------

 --------------------------------------
 meth-pyridine_isomer opt freq with AM1
 --------------------------------------
 Symbolic Z-matrix:
 Charge =  0 Multiplicity = 1

 SCF Done:  E(RAM1) =  0.171126787103     A.U. after   16 cycles
 SCF Done:  E(RAM1) =  0.123648690479     A.U. after   14 cycles
 SCF Done:  E(RAM1) =  0.875771408338E-01 A.U. after   13 cycles
 SCF Done:  E(RAM1) =  0.753747614349E-01 A.U. after   13 cycles
 SCF Done:  E(RAM1) =  0.740590380538E-01 A.U. after   12 cycles
 SCF Done:  E(RAM1) =  0.736045431182E-01 A.U. after   11 cycles
 SCF Done:  E(RAM1) =  0.735622686808E-01 A.U. after   11 cycles
 SCF Done:  E(RAM1) =  0.735787739540E-01 A.U. after   11 cycles
 SCF Done:  E(RAM1) =  0.735532121859E-01 A.U. after   10 cycles
 SCF Done:  E(RAM1) =  0.735526722326E-01 A.U. after    9 cycles
 SCF Done:  E(RAM1) =  0.735521096625E-01 A.U. after   10 cycles
 SCF Done:  E(RAM1) =  0.735513900422E-01 A.U. after   10 cycles
 SCF Done:  E(RAM1) =  0.735507222228E-01 A.U. after   10 cycles
 SCF Done:  E(RAM1) =  0.735501981920E-01 A.U. after   10 cycles
 SCF Done:  E(RAM1) =  0.735499360291E-01 A.U. after    9 cycles
 Optimization completed.
    -- Stationary point found.
 Normal termination of Gaussian 16 at Sat Jun 14 14:28:34 2025.

 -------------------------------------------------------------
 #N Geom=AllCheck Guess=TCheck SCRF=Check GenChk RAM1/ZDO Freq
 -------------------------------------------------------------

 Structure from the checkpoint file:  "meth_pyridine_isomer_opt.chk"
 --------------------------------------
 meth-pyridine_isomer opt freq with AM1
 --------------------------------------
 Charge =  0 Multiplicity = 1

                         Standard orientation:
 ---------------------------------------------------------------------
 Center     Atomic      Atomic             Coordinates (Angstroms)
 Number     Number       Type             X           Y           Z
 ---------------------------------------------------------------------
      1          6           0       -1.011938    0.029396   -0.000218
      2          6           0       -0.226251    1.254344   -0.000493
      3          6           0        1.128458    1.214527    0.000031
      4          6           0        1.228241   -1.093321    0.000098
      5          6           0       -0.259902   -1.263722   -0.000424
      6          1           0       -0.772655    2.208393   -0.001013
      7          1           0        1.753635    2.123959    0.000348
      8          1           0        1.823546   -2.026603    0.000047
      9          7           0        1.876328    0.026371    0.000499
     10          6           0       -2.352833    0.047599    0.000498
     11          1           0       -0.549224   -1.866943    0.904262
     12          1           0       -0.548495   -1.866476   -0.905681
     13          1           0       -2.926109    0.982987    0.000800
     14          1           0       -2.949645   -0.872845    0.000802
 ---------------------------------------------------------------------

 SCF Done:  E(RAM1) =  0.735499360285E-01 A.U. after    2 cycles

 The electronic state is 1-A.
 Alpha  occ. eigenvalues --   -1.45903  -1.27743  -1.16973  -1.03982  -0.88627
 Alpha  occ. eigenvalues --   -0.80487  -0.62772  -0.62487  -0.61980  -0.56844
 Alpha  occ. eigenvalues --   -0.52185  -0.51043  -0.50365  -0.46544  -0.43654
 Alpha  occ. eigenvalues --   -0.42056  -0.38891  -0.32515
 Alpha virt. eigenvalues --   -0.01267   0.04781   0.08472   0.12183   0.12696
 Alpha virt. eigenvalues --    0.13572   0.14021   0.15270   0.15434   0.16391
 Alpha virt. eigenvalues --    0.16765   0.17041   0.18079   0.19646   0.20353

 Mulliken charges:
               1
     1  C   -0.079365
     2  C   -0.157991
     3  C   -0.098630
     4  C   -0.062869
     5  C   -0.150595
     6  H    0.138562
     7  H    0.157891
     8  H    0.151196
     9  N   -0.143292
    10  C   -0.212222
    11  H    0.111857
    12  H    0.111861
    13  H    0.118614
    14  H    0.114984
 Sum of Mulliken charges =   0.00000

 Dipole moment (field-independent basis, Debye):
    X=             -1.8154    Y=             -0.7885    Z=             -0.0008  Tot=              1.9792
 N-N= 1.605660443784D+02 E-N=-2.347988049309D+02  KE=-6.088518306623D+01
 Orbital energies and kinetic energies (alpha):
                                 1                 2
   1         O                -1.459026         -2.583347
   2         O                -1.277431         -2.415240
   3         O                -1.169727         -2.135912
   4         O                -1.039817         -2.062424
   5         O                -0.886272         -1.905834
   6         O                -0.804874         -1.723676
   7         O                -0.627718         -1.433900

  Exact polarizability:  97.832  -4.310  67.746  -0.009   0.003  17.951
 Approx polarizability:  73.396   0.856  49.747  -0.003   0.002  12.517

                      1                      2                      3
                      A                      A                      A
 Frequencies --     73.2316               262.6702               394.4774
 Red. masses --      2.6544                 2.1874                 2.3430
 Frc consts  --      0.0084                 0.0889                 0.2148
 IR Inten    --      2.8163                 0.8705                 0.1589

                      4                      5                      6
                      A                      A                      A
 Frequencies --    468.0751               529.3180               540.3636
 Red. masses --      2.7309                 1.5715                 6.7290
 Frc consts  --      0.3525                 0.2594                 1.1576
 IR Inten    --     24.9429                 2.5980                 0.7773

                      7                      8                      9
                      A                      A                      A
 Frequencies --    619.7014               651.0449               824.4607
 Red. masses --      1.2266                 6.5928                 1.2668
 Frc consts  --      0.2775                 1.6464                 0.5073
 IR Inten    --      0.7281                 3.5811                18.6067

                     10                     11                     12
                      A                      A                      A
 Frequencies --    874.2569               934.9646               973.3161
 Red. masses --      1.3708                 3.8281                 1.5881
 Frc consts  --      0.6173                 1.9716                 0.8864
 IR Inten    --     19.4675                 5.8850                 0.0799

                     13                     14                     15
                      A                      A                      A
 Frequencies --    986.1184              1019.8649              1040.9845
 Red. masses --      1.5146                 1.7537                 3.5106
 Frc consts  --      0.8678                 1.0747                 2.2414
 IR Inten    --      0.8623                13.7807                 0.5436

                     16                     17                     18
                      A                      A                      A
 Frequencies --   1047.7427              1137.2327              1152.5864
 Red. masses --      1.5114                 1.4954                 1.1326
 Frc consts  --      0.9775                 1.1394                 0.8865
 IR Inten    --     36.3638                 0.3438                 2.7931

                     19                     20                     21
                      A                      A                      A
 Frequencies --   1166.4617              1224.2944              1295.3180
 Red. masses --      1.5150                 1.1034                 1.2527
 Frc consts  --      1.2145                 0.9744                 1.2384
 IR Inten    --      1.2252                 2.4355                 0.5988

                     22                     23                     24
                      A                      A                      A
 Frequencies --   1360.2905              1380.6402              1417.2214
 Red. masses --      1.1443                 1.7782                 1.5103
 Frc consts  --      1.2475                 1.9971                 1.7873
 IR Inten    --      7.5292                 7.2638                 1.9420

                     25                     26                     27
                      A                      A                      A
 Frequencies --   1457.7580              1528.9234              1795.1959
 Red. masses --      2.4534                 6.5698                10.1741
 Frc consts  --      3.0717                 9.0485                19.3184
 IR Inten    --      0.3894                 0.8102                 2.2387

                     28                     29                     30
                      A                      A                      A
 Frequencies --   1859.8802              1907.0679              2995.5206
 Red. masses --      9.5822                10.7524                 1.0896
 Frc consts  --     19.5293                23.0403                 5.7603
 IR Inten    --      1.3052                34.3786                10.0036

                     31                     32                     33
                      A                      A                      A
 Frequencies --   3071.8083              3130.1887              3156.2261
 Red. masses --      1.0486                 1.0800                 1.0806
 Frc consts  --      5.8296                 6.2344                 6.3422
 IR Inten    --     10.0362                49.8484                62.3029

                     34                     35                     36
                      A                      A                      A
 Frequencies --   3182.0289              3191.8953              3218.0289
 Red. masses --      1.1053                 1.0818                 1.0530
 Frc consts  --      6.5936                 6.4939                 6.4246
 IR Inten    --      7.9124                35.6687                51.6514

 - Thermochemistry -
 -------------------
 Temperature   298.150 Kelvin.  Pressure   1.00000 Atm.
 Atom     1 has atomic number  6 and mass  12.00000

 Molecular mass:    93.05785 amu.
 Principal axes and moments of inertia in atomic units:
                           1         2         3
     Eigenvalues --   336.16373 676.181001000.55465
           X            1.00000   0.00134  -0.00002
           Y           -0.00134   1.00000   0.00001
           Z            0.00002  -0.00001   1.00000
 This molecule is an asymmetric top.
 Rotational symmetry number  1.
 Rotational temperatures (Kelvin)      0.25765     0.12809     0.08657
 Rotational constants (GHZ):           5.36864     2.66902     1.80374
 Zero-point vibrational energy     310246.5 (Joules/Mol)
                                   74.15068 (Kcal/Mol)
 Warning -- explicit consideration of   7 degrees of freedom as
           vibrations may cause significant error
 Vibrational temperatures:    105.36   377.92   567.56   673.46   761.57
          (Kelvin)            777.46   891.61   936.71  1186.22  1257.86
                             1345.21  1400.38  1418.80  1467.36  1497.74
                             1507.47  1636.22  1658.31  1678.28  1761.49
                             1863.67  1957.15  1986.43  2039.07  2097.39
                             2199.78  2582.89  2675.95  2743.85  4309.89
                             4419.65  4503.64  4541.11  4578.23  4592.43
                             4630.03

 Zero-point correction=                           0.118167 (Hartree/Particle)
 Thermal correction to Energy=                    0.123981
 Thermal correction to Enthalpy=                  0.124925
 Thermal correction to Gibbs Free Energy=         0.088332
 Sum of electronic and zero-point Energies=              0.191717
 Sum of electronic and thermal Energies=                 0.197531
 Sum of electronic and thermal Enthalpies=               0.198475
 Sum of electronic and thermal Free Energies=            0.161882

                     E (Thermal)             CV                S
                      KCal/Mol        Cal/Mol-Kelvin    Cal/Mol-Kelvin
 Total                   77.799             21.761             77.017
 Electronic               0.000              0.000              0.000
 Translational            0.889              2.981             39.504
 Rotational               0.889              2.981             26.922
 Vibrational             76.022             15.800             10.591
 Vibration     1          0.599              1.967              4.065
 Vibration     2          0.670              1.741              1.644
 Vibration     3          0.761              1.482              0.983
 Vibration     4          0.825              1.321              0.743
 Vibration     5          0.884              1.185              0.589
 Vibration     6          0.895              1.161              0.565
 Vibration     7          0.980              0.990              0.417

                           ! Non-Optimized Parameters !
 Normal termination of Gaussian 16 at Sat Jun 14 14:28:34 2025.
