 Gaussian 16, Revision B.01,
 Gaussian 16:  EM64L-G16RevB.01 20-Dec-2017

 --------------------------------------
 # hf/3-21g* pop=full geom=connectivity
 --------------------------------------

 -------------------------------------
 meth-pyridine_isomer sp with HF3-21G*
 -------------------------------------
 Symbolic Z-matrix:
 Charge =  0 Multiplicity = 1

                         Standard orientation:
 ---------------------------------------------------------------------
 Center     Atomic      Atomic             Coordinates (Angstroms)
 Number     Number       Type             X           Y           Z
 ---------------------------------------------------------------------
      1          6           0        1.011938    0.029396    0.000218
      2          6           0        0.226251    1.254344    0.000493
      3          6           0       -1.128458    1.214527   -0.000031
      4          6           0       -1.228241   -1.093321   -0.000098
      5          6           0        0.259902   -1.263722    0.000424
      6          1           0        0.772655    2.208393    0.001013
      7          1           0       -1.753635    2.123959   -0.000348
      8          1           0       -1.823546   -2.026603   -0.000047
      9          7           0       -1.876328    0.026371   -0.000499
     10          6           0        2.352833    0.047599   -0.000498
     11          1           0        0.549224   -1.866943   -0.904262
     12          1           0        0.548495   -1.866476    0.905681
     13          1           0        2.926109    0.982987   -0.000800
     14          1           0        2.949645   -0.872845   -0.000802
 ---------------------------------------------------------------------

 SCF Done:  E(RHF) =  -284.068642809     A.U. after   14 cycles

 The electronic state is 1-A.
 Alpha  occ. eigenvalues --  -15.49474 -11.23981 -11.21534 -11.20120 -11.19878
 Alpha  occ. eigenvalues --  -11.18862 -11.17188  -1.26148  -1.10799  -1.03693
 Alpha  occ. eigenvalues --   -0.95930  -0.85637  -0.79387  -0.68653  -0.66752
 Alpha  occ. eigenvalues --   -0.65551  -0.61527  -0.58502  -0.57038  -0.55714
 Alpha  occ. eigenvalues --   -0.48345  -0.47994  -0.42256  -0.39946  -0.29309
 Alpha virt. eigenvalues --    0.08134   0.19429   0.26709   0.26794   0.28496
 Alpha virt. eigenvalues --    0.29965   0.32650   0.34934   0.35597   0.37855
 Alpha virt. eigenvalues --    0.39665   0.46466   0.50854   0.55071   0.56985

 Mulliken charges:
               1
     1  C   -0.042998
     2  C   -0.262114
     3  C    0.046427
     4  C    0.175073
     5  C   -0.545794
     6  H    0.242335
     7  H    0.250144
     8  H    0.239230
     9  N   -0.629215
    10  C   -0.397121
    11  H    0.254964
    12  H    0.254952
    13  H    0.209279
    14  H    0.204839
 Sum of Mulliken charges =  -0.00000

 Dipole moment (field-independent basis, Debye):
    X=              1.9408    Y=             -0.9546    Z=              0.0010  Tot=              2.1629
 Quadrupole moment (field-independent basis, Debye-Ang):
   XX=            -46.8625   YY=            -35.2353   ZZ=            -45.5453
   XY=              0.3860   XZ=             -0.0031   YZ=             -0.0002

 Normal termination of Gaussian 16 at Sat Jun 14 14:29:52 2025.
