 Gaussian 16, Revision B.01,
 Gaussian 16:  EM64L-G16RevB.01 20-Dec-2017

 -----------------------------------------
 # opt freq am1 pop=full geom=connectivity
 -----------------------------------------

 -------------------------------
 meth-pyridine opt freq with AM1
 -------------------------------
 Symbolic Z-matrix:
 Charge =  0 Multiplicity = 1

 SCF Done:  E(RAM1) =  0.504810251245E-01 A.U. after   13 cycles
 SCF Done:  E(RAM1) =  0.390641872728E-01 A.U. after   12 cycles
 SCF Done:  E(RAM1) =  0.384007614762E-01 A.U. after   11 cycles
 SCF Done:  E(RAM1) =  0.383244257511E-01 A.U. after   10 cycles
 SCF Done:  E(RAM1) =  0.383182176289E-01 A.U. after    9 cycles
 SCF Done:  E(RAM1) =  0.383173181884E-01 A.U. after    9 cycles
 Optimization completed.
    -- Stationary point found.
 Normal termination of Gaussian 16 at Sat Jun 14 14:20:48 2025.

 -------------------------------------------------------------
 #N Geom=AllCheck Guess=TCheck SCRF=Check GenChk RAM1/ZDO Freq
 -------------------------------------------------------------

 Structure from the checkpoint file:  "meth_pyridine_opt.chk"
 -------------------------------
 meth-pyridine opt freq with AM1
 -------------------------------
 Charge =  0 Multiplicity = 1

                         Standard orientation:
 ---------------------------------------------------------------------
 Center     Atomic      Atomic             Coordinates (Angstroms)
 Number     Number       Type             X           Y           Z
 ---------------------------------------------------------------------
      1          6           0        0.002628    0.905356   -0.000000
      2          6           0        0.003651    0.185782    1.202077
      3          6           0        0.003651   -1.218711    1.149074
      4          6           0        0.003651   -1.218711   -1.149074
      5          6           0        0.003651    0.185782   -1.202077
      6          1           0        0.005517    0.705383    2.168950
      7          1           0        0.004424   -1.817492    2.077492
      8          1           0        0.004424   -1.817492   -2.077492
      9          1           0        0.005517    0.705383   -2.168950
     10          7           0        0.003391   -1.922126    0.000000
     11          6           0       -0.012551    2.384741   -0.000000
     12          1           0        0.499087    2.790272   -0.907436
     13          1           0       -1.069888    2.753125   -0.000000
     14          1           0        0.499087    2.790272    0.907436
 ---------------------------------------------------------------------

 SCF Done:  E(RAM1) =  0.383173181885E-01 A.U. after    2 cycles

 The electronic state is 1-A'.
 Alpha  occ. eigenvalues --   -1.47399  -1.27433  -1.15616  -1.05106  -0.88467
 Alpha  occ. eigenvalues --   -0.83369  -0.63493  -0.62425  -0.60674  -0.54972
 Alpha  occ. eigenvalues --   -0.52895  -0.50395  -0.49997  -0.49606  -0.45042
 Alpha  occ. eigenvalues --   -0.39080  -0.37666  -0.36338
 Alpha virt. eigenvalues --    0.00762   0.00929   0.10240   0.13112   0.13371
 Alpha virt. eigenvalues --    0.13924   0.14748   0.14862   0.15666   0.15706
 Alpha virt. eigenvalues --    0.16420   0.17291   0.17629   0.18689   0.19540

 Mulliken charges:
               1
     1  C   -0.030978
     2  C   -0.183982
     3  C   -0.069561
     4  C   -0.069561
     5  C   -0.183982
     6  H    0.142094
     7  H    0.157631
     8  H    0.157631
     9  H    0.142094
    10  N   -0.142515
    11  C   -0.186433
    12  H    0.087479
    13  H    0.092604
    14  H    0.087479
 Sum of Mulliken charges =  -0.00000

 Dipole moment (field-independent basis, Debye):
    X=             -0.0500    Y=              2.3240    Z=             -0.0000  Tot=              2.3245
 N-N= 1.603330208450D+02 E-N=-2.343035873649D+02  KE=-6.088632630518D+01
 Symmetry A'   KE=-3.914119827353D+01
 Symmetry A"   KE=-2.174512803165D+01
 Orbital energies and kinetic energies (alpha):
                                 1                 2
   1         O                -1.473985         -2.597712
   2         O                -1.274334         -2.394432
   3         O                -1.156159         -2.148873
   4         O                -1.051058         -2.036625
   5         O                -0.884675         -1.905431

  Exact polarizability:  17.704  -0.596  73.932   0.000   0.000  73.244
 Approx polarizability:  12.058  -0.384  62.003  -0.000   0.000  63.961

                      1                      2                      3
                     A"                     A'                     A"
 Frequencies --     25.0089               200.6146               363.3660
 Red. masses --      1.0379                 3.5039                 2.3217
 Frc consts  --      0.0004                 0.0831                 0.1806
 IR Inten    --      0.1006                 0.0893                 0.0034

                      4                      5                      6
                     A"                     A'                     A'
 Frequencies --    364.8753               500.2474               584.5554
 Red. masses --      2.4392                 2.6764                 5.9695
 Frc consts  --      0.1913                 0.3946                 1.2018
 IR Inten    --      0.0031                25.7165                 2.6649

                      7                      8                      9
                     A'                     A"                     A'
 Frequencies --    675.6888               689.3005               840.9626
 Red. masses --      2.1081                 7.0410                 1.2943
 Frc consts  --      0.5671                 1.9711                 0.5393
 IR Inten    --      0.7188                 0.8623                59.8968

                     10                     11                     12
                     A"                     A'                     A'
 Frequencies --    904.5042               945.9805               971.6262
 Red. masses --      1.2580                 3.8087                 1.7169
 Frc consts  --      0.6064                 2.0082                 0.9550
 IR Inten    --      0.0024                 4.1531                 0.0800

                     13                     14                     15
                     A"                     A"                     A'
 Frequencies --    990.0082              1040.1536              1077.1504
 Red. masses --      1.6185                 1.3215                 1.5810
 Frc consts  --      0.9346                 0.8424                 1.0808
 IR Inten    --      0.0035                 0.3460                 8.0468

                     16                     17                     18
                     A'                     A"                     A'
 Frequencies --   1129.0189              1159.5005              1187.4737
 Red. masses --      2.7373                 1.1686                 1.5485
 Frc consts  --      2.0557                 0.9256                 1.2865
 IR Inten    --      0.0175                 1.6015                 4.0745

                     19                     20                     21
                     A'                     A"                     A"
 Frequencies --   1232.7990              1289.3885              1304.5682
 Red. masses --      1.1326                 1.1975                 6.5806
 Frc consts  --      1.0141                 1.1730                 6.5986
 IR Inten    --      1.7574                 0.0048                11.1351

                     22                     23                     24
                     A"                     A'                     A'
 Frequencies --   1377.8563              1380.8722              1418.4020
 Red. masses --      1.0784                 1.0837                 1.4677
 Frc consts  --      1.2063                 1.2175                 1.7398
 IR Inten    --      1.7847                 3.9516                 3.9239

                     25                     26                     27
                     A'                     A"                     A'
 Frequencies --   1468.4656              1510.6775              1667.4792
 Red. masses --      3.1153                 4.7949                 6.3437
 Frc consts  --      3.9580                 6.4473                10.3924
 IR Inten    --      0.9862                18.1615                 7.3979

                     28                     29                     30
                     A"                     A'                     A'
 Frequencies --   1768.3220              1769.4145              3044.3673
 Red. masses --     10.8427                10.7626                 1.0893
 Frc consts  --     19.9760                19.8530                 5.9482
 IR Inten    --      6.5112                37.3983                 4.0168

                     31                     32                     33
                     A"                     A"                     A'
 Frequencies --   3058.5483              3147.7535              3148.1517
 Red. masses --      1.0912                 1.0779                 1.0288
 Frc consts  --      6.0141                 6.2928                 6.0076
 IR Inten    --      3.1545                65.1813                 4.6551

                     34                     35                     36
                     A'                     A"                     A'
 Frequencies --   3151.5503              3203.5822              3206.5453
 Red. masses --      1.0835                 1.0793                 1.0841
 Frc consts  --      6.3403                 6.5265                 6.5676
 IR Inten    --     36.8175                70.0059                10.7985

 - Thermochemistry -
 -------------------
 Temperature   298.150 Kelvin.  Pressure   1.00000 Atm.
 Atom     1 has atomic number  6 and mass  12.00000

 Molecular mass:    93.05785 amu.
 Principal axes and moments of inertia in atomic units:
                           1         2         3
     Eigenvalues --   313.77663 709.020291010.96830
           X           -0.00348  -0.00000   0.99999
           Y            0.99999   0.00000   0.00348
           Z           -0.00000   1.00000   0.00000
 This molecule is an asymmetric top.
 Rotational symmetry number  1.
 Rotational temperatures (Kelvin)      0.27604     0.12216     0.08567
 Rotational constants (GHZ):           5.75167     2.54540     1.78516
 Zero-point vibrational energy     309825.5 (Joules/Mol)
                                   74.05007 (Kcal/Mol)
 Warning -- explicit consideration of   6 degrees of freedom as
           vibrations may cause significant error
 Vibrational temperatures:     35.98   288.64   522.80   524.97   719.74
          (Kelvin)            841.04   972.17   991.75  1209.96  1301.38
                             1361.05  1397.95  1424.40  1496.55  1549.78
                             1624.41  1668.26  1708.51  1773.72  1855.14
                             1876.98  1982.43  1986.77  2040.76  2112.79
                             2173.53  2399.13  2544.22  2545.79  4380.17
                             4400.57  4528.92  4529.49  4534.38  4609.24
                             4613.50

 Zero-point correction=                           0.118006 (Hartree/Particle)
 Thermal correction to Energy=                    0.124051
 Thermal correction to Enthalpy=                  0.124995
 Thermal correction to Gibbs Free Energy=         0.087059
 Sum of electronic and zero-point Energies=              0.156324
 Sum of electronic and thermal Energies=                 0.162369
 Sum of electronic and thermal Enthalpies=               0.163313
 Sum of electronic and thermal Free Energies=            0.125376

                     E (Thermal)             CV                S
                      KCal/Mol        Cal/Mol-Kelvin    Cal/Mol-Kelvin
 Total                   77.843             21.638             79.844
 Electronic               0.000              0.000              0.000
 Translational            0.889              2.981             39.504
 Rotational               0.889              2.981             26.911
 Vibrational             76.066             15.676             13.430
 Vibration     1          0.593              1.985              6.190
 Vibration     2          0.638              1.839              2.127
 Vibration     3          0.737              1.548              1.108
 Vibration     4          0.738              1.545              1.101
 Vibration     5          0.856              1.249              0.658
 Vibration     6          0.942              1.065              0.477

 Optimization completed.
    -- Stationary point found.
 Normal termination of Gaussian 16 at Sat Jun 14 14:20:49 2025.
