 Gaussian 16, Revision B.01,
 Gaussian 16:  EM64L-G16RevB.01 20-Dec-2017

 --------------------------------------
 # hf/3-21g* pop=full geom=connectivity
 --------------------------------------

 ------------------------------
 meth-pyridine sp with HF#-21G*
 ------------------------------
 Symbolic Z-matrix:
 Charge =  0 Multiplicity = 1

                         Standard orientation:
 ---------------------------------------------------------------------
 Center     Atomic      Atomic             Coordinates (Angstroms)
 Number     Number       Type             X           Y           Z
 ---------------------------------------------------------------------
      1          6           0        0.002628    0.905356   -0.000000
      2          6           0        0.003651    0.185782    1.202077
      3          6           0        0.003651   -1.218711    1.149074
      4          6           0        0.003651   -1.218711   -1.149074
      5          6           0        0.003651    0.185782   -1.202077
      6          1           0        0.005517    0.705383    2.168950
      7          1           0        0.004424   -1.817492    2.077492
      8          1           0        0.004424   -1.817492   -2.077492
      9          1           0        0.005517    0.705383   -2.168950
     10          7           0        0.003391   -1.922126    0.000000
     11          6           0       -0.012551    2.384741   -0.000000
     12          1           0        0.499087    2.790272   -0.907436
     13          1           0       -1.069888    2.753125   -0.000000
     14          1           0        0.499087    2.790272    0.907436
 ---------------------------------------------------------------------

 SCF Done:  E(RHF) =  -284.126544491     A.U. after   13 cycles

 The electronic state is 1-A'.
 Alpha  occ. eigenvalues --  -15.49212 -11.22406 -11.22361 -11.21310 -11.18977
 Alpha  occ. eigenvalues --  -11.18965 -11.18583  -1.26036  -1.11212  -1.02647
 Alpha  occ. eigenvalues --   -0.96816  -0.85287  -0.81742  -0.69286  -0.67112
 Alpha  occ. eigenvalues --   -0.64381  -0.59534  -0.58954  -0.55150  -0.54957
 Alpha  occ. eigenvalues --   -0.52415  -0.50137  -0.40033  -0.36512  -0.34887
 Alpha virt. eigenvalues --    0.12872   0.13509   0.26261   0.28699   0.29412
 Alpha virt. eigenvalues --    0.31226   0.33457   0.34672   0.36233   0.38439
 Alpha virt. eigenvalues --    0.41417   0.48981   0.52381   0.54018   0.54447

 Mulliken charges:
               1
     1  C   -0.001390
     2  C   -0.319133
     3  C    0.122941
     4  C    0.122941
     5  C   -0.319133
     6  H    0.239865
     7  H    0.247675
     8  H    0.247675
     9  H    0.239865
    10  N   -0.656345
    11  C   -0.584600
    12  H    0.215511
    13  H    0.228619
    14  H    0.215511
 Sum of Mulliken charges =  -0.00000

 Dipole moment (field-independent basis, Debye):
    X=             -0.0573    Y=              2.8514    Z=              0.0000  Tot=              2.8520
 Quadrupole moment (field-independent basis, Debye-Ang):
   XX=            -45.6547   YY=            -45.4529   ZZ=            -35.7316
   XY=             -0.0866   XZ=              0.0000   YZ=              0.0000

 Normal termination of Gaussian 16 at Sat Jun 14 14:23:20 2025.
