 Gaussian 16, Revision B.01,
 Gaussian 16:  EM64L-G16RevB.01 20-Dec-2017

 --------------------------------------
 # hf/3-21g* pop=full geom=connectivity
 --------------------------------------

 ------------------------
 pyridine sp with HF3-21G
 ------------------------
 Symbolic Z-matrix:
 Charge =  0 Multiplicity = 1

                         Standard orientation:
 ---------------------------------------------------------------------
 Center     Atomic      Atomic             Coordinates (Angstroms)
 Number     Number       Type             X           Y           Z
 ---------------------------------------------------------------------
      1          6           0        1.389107    0.000000    0.000000
      2          6           0        0.679420    1.202072    0.000000
      3          6           0       -0.726785    1.149975    0.000000
      4          6           0       -0.726785   -1.149975    0.000000
      5          6           0        0.679420   -1.202072    0.000000
      6          1           0        2.488541    0.000000    0.000000
      7          1           0        1.199383    2.168332    0.000000
      8          1           0       -1.326814    2.077389    0.000000
      9          1           0       -1.326815   -2.077389    0.000000
     10          1           0        1.199382   -2.168332    0.000000
     11          7           0       -1.428562    0.000000    0.000000
 ---------------------------------------------------------------------

 SCF Done:  E(RHF) =  -245.306553797     A.U. after   13 cycles

 The electronic state is 1-A'.
 Alpha  occ. eigenvalues --  -15.49931 -11.22738 -11.22692 -11.20987 -11.19707
 Alpha  occ. eigenvalues --  -11.19696  -1.26513  -1.09025  -1.02998  -0.85414
 Alpha  occ. eigenvalues --   -0.85264  -0.72066  -0.65949  -0.64764  -0.59881
 Alpha  occ. eigenvalues --   -0.57265  -0.54137  -0.51481  -0.40466  -0.38375
 Alpha  occ. eigenvalues --   -0.35139
 Alpha virt. eigenvalues --    0.12523   0.13288   0.25178   0.30768   0.32857
 Alpha virt. eigenvalues --    0.35057   0.35141   0.35364   0.43558   0.48832
 Alpha virt. eigenvalues --    0.52360   0.52871   0.72859   0.74012   0.90891

 Mulliken charges:
               1
     1  C   -0.176858
     2  C   -0.326721
     3  C    0.114043
     4  C    0.114043
     5  C   -0.326721
     6  H    0.253351
     7  H    0.247070
     8  H    0.250762
     9  H    0.250762
    10  H    0.247070
    11  N   -0.646800
 Sum of Mulliken charges =  -0.00000

 Dipole moment (field-independent basis, Debye):
    X=              2.4401    Y=              0.0000    Z=              0.0000  Tot=              2.4401
 Quadrupole moment (field-independent basis, Debye-Ang):
   XX=            -36.7258   YY=            -28.9173   ZZ=            -39.2661
   XY=              0.0000   XZ=              0.0000   YZ=              0.0000

 Normal termination of Gaussian 16 at Sat Jun 14 14:15:52 2025.
