 Gaussian 16, Revision B.01,
 Gaussian 16:  EM64L-G16RevB.01 20-Dec-2017

 -----------------------------------------
 # opt freq am1 pop=full geom=connectivity
 -----------------------------------------

 --------------------------
 pyridine opt+freq with AM1
 --------------------------
 Symbolic Z-matrix:
 Charge =  0 Multiplicity = 1

 SCF Done:  E(RAM1) =  0.565307996549E-01 A.U. after   13 cycles
 SCF Done:  E(RAM1) =  0.513299216873E-01 A.U. after   11 cycles
 SCF Done:  E(RAM1) =  0.509360595326E-01 A.U. after   11 cycles
 SCF Done:  E(RAM1) =  0.509104297388E-01 A.U. after    9 cycles
 SCF Done:  E(RAM1) =  0.509093592561E-01 A.U. after    9 cycles
 Optimization completed.
    -- Stationary point found.
 Normal termination of Gaussian 16 at Sat Jun 14 14:07:44 2025.

 -------------------------------------------------------------
 #N Geom=AllCheck Guess=TCheck SCRF=Check GenChk RAM1/ZDO Freq
 -------------------------------------------------------------

 Structure from the checkpoint file:  "pyridine_opt.chk"
 --------------------------
 pyridine opt+freq with AM1
 --------------------------
 Charge =  0 Multiplicity = 1

                         Standard orientation:
 ---------------------------------------------------------------------
 Center     Atomic      Atomic             Coordinates (Angstroms)
 Number     Number       Type             X           Y           Z
 ---------------------------------------------------------------------
      1          6           0       -0.000000   -1.389107    0.000000
      2          6           0        1.202072   -0.679420   -0.000000
      3          6           0        1.149975    0.726785    0.000000
      4          6           0       -1.149975    0.726785   -0.000000
      5          6           0       -1.202072   -0.679420    0.000000
      6          1           0       -0.000000   -2.488541   -0.000000
      7          1           0        2.168332   -1.199383   -0.000000
      8          1           0        2.077389    1.326814    0.000000
      9          1           0       -2.077389    1.326815   -0.000000
     10          1           0       -2.168332   -1.199382    0.000000
     11          7           0        0.000000    1.428562    0.000000
 ---------------------------------------------------------------------

 SCF Done:  E(RAM1) =  0.509093592562E-01 A.U. after    2 cycles

 The electronic state is 1-A.
 Alpha  occ. eigenvalues --   -1.46834  -1.21761  -1.15709  -0.88616  -0.88273
 Alpha  occ. eigenvalues --   -0.66097  -0.61348  -0.60955  -0.53025  -0.52774
 Alpha  occ. eigenvalues --   -0.51233  -0.46102  -0.39394  -0.39124  -0.36500
 Alpha virt. eigenvalues --    0.00507   0.01025   0.10259   0.12932   0.13814
 Alpha virt. eigenvalues --    0.14116   0.14602   0.14796   0.16551   0.17367
 Alpha virt. eigenvalues --    0.18569   0.19057   0.20755   0.25085

 Mulliken charges:
               1
     1  C   -0.093198
     2  C   -0.181385
     3  C   -0.072534
     4  C   -0.072534
     5  C   -0.181385
     6  H    0.137433
     7  H    0.142667
     8  H    0.158357
     9  H    0.158357
    10  H    0.142667
    11  N   -0.138445
 Sum of Mulliken charges =  -0.00000

 Dipole moment (field-independent basis, Debye):
    X=             -0.0000    Y=             -1.9740    Z=             -0.0000  Tot=              1.9740
 N-N= 1.227934733113D+02 E-N=-1.718289367030D+02  KE=-5.230133716628D+01
 Orbital energies and kinetic energies (alpha):
                                 1                 2
   1         O                -1.468340         -2.605375
   2         O                -1.217608         -2.391676
   3         O                -1.157092         -2.149399
   4         O                -0.886160         -1.917124
   5         O                -0.882725         -1.907320
   6         O                -0.660968         -1.434036
   7         O                -0.613485         -1.745787

  Exact polarizability:  67.206  -0.000  60.272   0.000   0.000   9.377
 Approx polarizability:  58.995  -0.000  54.545   0.000  -0.000   6.912

                      1                      2                      3
                      A                      A                      A
 Frequencies --    362.3010               398.9013               661.9473
 Red. masses --      2.1618                 2.8780                 1.9680
 Frc consts  --      0.1672                 0.2698                 0.5081
 IR Inten    --      0.0000                 3.9283                17.3361

                      4                      5                      6
                      A                      A                      A
 Frequencies --    676.4804               676.5828               780.6421
 Red. masses --      7.1060                 6.6539                 1.1606
 Frc consts  --      1.9160                 1.7946                 0.4167
 IR Inten    --      2.6821                 0.7218                88.6486

                      7                      8                      9
                      A                      A                      A
 Frequencies --    906.7155               950.2584               991.1179
 Red. masses --      1.2571                 1.5167                 1.6274
 Frc consts  --      0.6089                 0.8069                 0.9419
 IR Inten    --      0.0000                 0.4218                 0.0000

                     10                     11                     12
                      A                      A                      A
 Frequencies --   1007.0979              1054.8742              1149.0618
 Red. masses --      1.7528                 5.6605                 1.1994
 Frc consts  --      1.0474                 3.7112                 0.9330
 IR Inten    --      0.4891                 4.8390                 0.6033

                     13                     14                     15
                      A                      A                      A
 Frequencies --   1153.3481              1178.6584              1221.8160
 Red. masses --      1.2030                 1.2128                 1.0997
 Frc consts  --      0.9429                 0.9927                 0.9673
 IR Inten    --      3.9373                 2.8127                 0.4119

                     16                     17                     18
                      A                      A                      A
 Frequencies --   1280.9306              1298.8259              1314.8547
 Red. masses --      1.5334                 5.7958                 2.4312
 Frc consts  --      1.4824                 5.7605                 2.4764
 IR Inten    --      4.0212                 0.1570                 9.8571

                     19                     20                     21
                      A                      A                      A
 Frequencies --   1522.2439              1604.7428              1757.5822
 Red. masses --      4.0064                 4.6711                10.3868
 Frc consts  --      5.4698                 7.0873                18.9043
 IR Inten    --     21.4121                11.3279                16.6807

                     22                     23                     24
                      A                      A                      A
 Frequencies --   1771.2207              3148.7032              3152.4386
 Red. masses --     11.1155                 1.0780                 1.0838
 Frc consts  --     20.5460                 6.2972                 6.3458
 IR Inten    --      5.1278                67.4542                40.2207

                     25                     26                     27
                      A                      A                      A
 Frequencies --   3191.2199              3206.7311              3212.1869
 Red. masses --      1.0788                 1.0795                 1.0874
 Frc consts  --      6.4730                 6.5406                 6.6107
 IR Inten    --     15.0938                74.5118                31.4283

 - Thermochemistry -
 -------------------
 Temperature   298.150 Kelvin.  Pressure   1.00000 Atm.
 Atom     1 has atomic number  6 and mass  12.00000

 Molecular mass:    79.04220 amu.
 Principal axes and moments of inertia in atomic units:
                           1         2         3
     Eigenvalues --   302.08930 314.66622 616.75552
           X            0.00000   1.00000  -0.00000
           Y            1.00000  -0.00000   0.00000
           Z           -0.00000   0.00000   1.00000
 This molecule is an asymmetric top.
 Rotational symmetry number  1.
 Rotational temperatures (Kelvin)      0.28672     0.27526     0.14043
 Rotational constants (GHZ):           5.97420     5.73541     2.92619
 Zero-point vibrational energy     237048.9 (Joules/Mol)
                                   56.65605 (Kcal/Mol)
 Warning -- explicit consideration of   2 degrees of freedom as
           vibrations may cause significant error
 Vibrational temperatures:    521.27   573.93   952.39   973.30   973.45
          (Kelvin)           1123.17  1304.56  1367.21  1426.00  1448.99
                             1517.73  1653.24  1659.41  1695.83  1757.92
                             1842.97  1868.72  1891.78  2190.17  2308.87
                             2528.77  2548.39  4530.28  4535.66  4591.45
                             4613.77  4621.62

 Zero-point correction=                           0.090287 (Hartree/Particle)
 Thermal correction to Energy=                    0.094556
 Thermal correction to Enthalpy=                  0.095500
 Thermal correction to Gibbs Free Energy=         0.062847
 Sum of electronic and zero-point Energies=              0.141197
 Sum of electronic and thermal Energies=                 0.145465
 Sum of electronic and thermal Enthalpies=               0.146410
 Sum of electronic and thermal Free Energies=            0.113756

                     E (Thermal)             CV                S
                      KCal/Mol        Cal/Mol-Kelvin    Cal/Mol-Kelvin
 Total                   59.335             15.839             68.725
 Electronic               0.000              0.000              0.000
 Translational            0.889              2.981             39.017
 Rotational               0.889              2.981             25.575
 Vibrational             57.557              9.877              4.133
 Vibration     1          0.736              1.550              1.112
 Vibration     2          0.765              1.472              0.967

 Optimization completed.
    -- Stationary point found.
 Normal termination of Gaussian 16 at Sat Jun 14 14:07:44 2025.
