 Gaussian 16, Revision B.01,
 Gaussian 16:  EM64L-G16RevB.01 20-Dec-2017

 -------------------------------------
 # hf/3-21g pop=full geom=connectivity
 -------------------------------------

 -------------------
 Title Card Required
 -------------------
 Symbolic Z-matrix:
 Charge =  0 Multiplicity = 1

                         Standard orientation:
 ---------------------------------------------------------------------
 Center     Atomic      Atomic             Coordinates (Angstroms)
 Number     Number       Type             X           Y           Z
 ---------------------------------------------------------------------
      1         13           0        0.000000    0.000000    0.096875
      2          1           0        0.000000    1.461354   -0.419792
      3          1           0       -1.265570   -0.730677   -0.419792
      4          1           0        1.265570   -0.730677   -0.419792
 ---------------------------------------------------------------------

 SCF Done:  E(RHF) =  -242.251146917     A.U. after    8 cycles

 The electronic state is 1-A1.
 Alpha  occ. eigenvalues --  -58.05265  -4.86751  -3.17011  -3.16973  -3.16973
 Alpha  occ. eigenvalues --   -0.57782  -0.41456  -0.41456
 Alpha virt. eigenvalues --   -0.00080   0.16356   0.16356   0.24856   0.30036
 Alpha virt. eigenvalues --    0.38755   0.38755   0.40526   1.37463   1.38888
 Alpha virt. eigenvalues --    1.38888

 Mulliken charges:
               1
     1  Al   0.759926
     2  H   -0.253309
     3  H   -0.253309
     4  H   -0.253309
 Sum of Mulliken charges =  -0.00000

 Dipole moment (field-independent basis, Debye):
    X=              0.0000    Y=              0.0000    Z=              2.9610  Tot=              2.9610
 Quadrupole moment (field-independent basis, Debye-Ang):
   XX=            -18.7415   YY=            -18.7415   ZZ=            -11.8022
   XY=              0.0000   XZ=             -0.0000   YZ=             -0.0000

 Normal termination of Gaussian 16 at Sat Jun 14 16:33:14 2025.
