 Gaussian 16, Revision B.01,
 Gaussian 16:  EM64L-G16RevB.01 20-Dec-2017

 -------------------------------------
 # hf/3-21g pop=full geom=connectivity
 -------------------------------------

 --
 sp
 --
 Symbolic Z-matrix:
 Charge = -1 Multiplicity = 1

                         Standard orientation:
 ---------------------------------------------------------------------
 Center     Atomic      Atomic             Coordinates (Angstroms)
 Number     Number       Type             X           Y           Z
 ---------------------------------------------------------------------
      1         13           0        0.000000    0.000000    0.000000
      2          1           0        0.960663    0.960663    0.960663
      3          1           0       -0.960663   -0.960663    0.960663
      4          1           0       -0.960663    0.960663   -0.960663
      5          1           0        0.960663   -0.960663   -0.960663
 ---------------------------------------------------------------------

 SCF Done:  E(RHF) =  -242.877449258     A.U. after    8 cycles

 The electronic state is 1-A1.
 Alpha  occ. eigenvalues --  -57.80327  -4.61271  -2.91684  -2.91684  -2.91684
 Alpha  occ. eigenvalues --   -0.35555  -0.18615  -0.18615  -0.18615
 Alpha virt. eigenvalues --    0.35703   0.35703   0.35703   0.48089   0.53274
 Alpha virt. eigenvalues --    0.60454   0.60454   0.60454   1.58795   1.58795
 Alpha virt. eigenvalues --    1.58795   1.63051

 Mulliken charges:
               1
     1  Al   0.435570
     2  H   -0.358892
     3  H   -0.358892
     4  H   -0.358892
     5  H   -0.358892
 Sum of Mulliken charges =  -1.00000

 Dipole moment (field-independent basis, Debye):
    X=              0.0000    Y=              0.0000    Z=             -0.0000  Tot=              0.0000
 Quadrupole moment (field-independent basis, Debye-Ang):
   XX=            -25.4600   YY=            -25.4600   ZZ=            -25.4600
   XY=              0.0000   XZ=              0.0000   YZ=             -0.0000

 Normal termination of Gaussian 16 at Sat Jun 14 16:12:56 2025.
