 Gaussian 16, Revision B.01,
 Gaussian 16:  EM64L-G16RevB.01 20-Dec-2017

 ----------------------------------------------
 # opt freq hf/3-21g pop=full geom=connectivity
 ----------------------------------------------

 ------------
 optimisation
 ------------
 Symbolic Z-matrix:
 Charge = -1 Multiplicity = 1

 SCF Done:  E(RHF) =  -242.864615352     A.U. after    8 cycles
 SCF Done:  E(RHF) =  -242.876389730     A.U. after    9 cycles
 SCF Done:  E(RHF) =  -242.877449258     A.U. after    7 cycles
 Optimization completed.
    -- Stationary point found.
 Normal termination of Gaussian 16 at Sat Jun 14 16:11:40 2025.

 --------------------------------------------------------------
 #N Geom=AllCheck Guess=TCheck SCRF=Check GenChk RHF/3-21G Freq
 --------------------------------------------------------------

 Structure from the checkpoint file:  "AlH4_ion_opt.chk"
 ------------
 optimisation
 ------------
 Charge = -1 Multiplicity = 1

                         Standard orientation:
 ---------------------------------------------------------------------
 Center     Atomic      Atomic             Coordinates (Angstroms)
 Number     Number       Type             X           Y           Z
 ---------------------------------------------------------------------
      1         13           0        0.000000    0.000000    0.000000
      2          1           0        0.960663    0.960663    0.960663
      3          1           0       -0.960663    0.960663   -0.960663
      4          1           0        0.960663   -0.960663   -0.960663
      5          1           0       -0.960663   -0.960663    0.960663
 ---------------------------------------------------------------------

 SCF Done:  E(RHF) =  -242.877449258     A.U. after    1 cycles

 The electronic state is 1-A1.
 Alpha  occ. eigenvalues --  -57.80327  -4.61271  -2.91684  -2.91684  -2.91684
 Alpha  occ. eigenvalues --   -0.35555  -0.18615  -0.18615  -0.18615
 Alpha virt. eigenvalues --    0.35703   0.35703   0.35703   0.48089   0.53274
 Alpha virt. eigenvalues --    0.60454   0.60454   0.60454   1.58795   1.58795
 Alpha virt. eigenvalues --    1.58795   1.63051

 Mulliken charges:
               1
     1  Al   0.435570
     2  H   -0.358892
     3  H   -0.358892
     4  H   -0.358892
     5  H   -0.358892
 Sum of Mulliken charges =  -1.00000

 Dipole moment (field-independent basis, Debye):
    X=             -0.0000    Y=              0.0000    Z=              0.0000  Tot=              0.0000
 Quadrupole moment (field-independent basis, Debye-Ang):
   XX=            -25.4600   YY=            -25.4600   ZZ=            -25.4600
   XY=             -0.0000   XZ=             -0.0000   YZ=             -0.0000

  Exact polarizability:  26.943   0.000  26.943   0.000   0.000  26.943
 Approx polarizability:  20.916   0.000  20.916   0.000   0.000  20.916

                      1                      2                      3
                      E                      E                     T2
 Frequencies --    813.4771               813.4771               840.4520
 Red. masses --      1.0078                 1.0078                 1.1026
 Frc consts  --      0.3929                 0.3929                 0.4589
 IR Inten    --      0.0000                 0.0000               623.5879
 Raman Activ --     64.2906                64.2906                18.0514

                      4                      5                      6
                     T2                     T2                     T2
 Frequencies --    840.4520               840.4520              1697.3716
 Red. masses --      1.1026                 1.1026                 1.0490
 Frc consts  --      0.4589                 0.4589                 1.7806
 IR Inten    --    623.5879               623.5879               523.6732
 Raman Activ --     18.0514                18.0514                46.3010

                      7                      8                      9
                     T2                     T2                     A1
 Frequencies --   1697.3716              1697.3716              1782.1784
 Red. masses --      1.0490                 1.0490                 1.0078
 Frc consts  --      1.7806                 1.7806                 1.8860
 IR Inten    --    523.6732               523.6732                 0.0000
 Raman Activ --     46.3010                46.3010               168.3211

 - Thermochemistry -
 -------------------
 Temperature   298.150 Kelvin.  Pressure   1.00000 Atm.
 Atom     1 has atomic number 13 and mass  26.98154

 Molecular mass:    31.01284 amu.
 Principal axes and moments of inertia in atomic units:
                           1         2         3
     Eigenvalues --    26.57145  26.57145  26.57145
           X            0.44718  -0.24263   0.86091
           Y            0.75670  -0.41058  -0.50876
           Z            0.47691   0.87895   0.00000
 This molecule is a spherical top.
 Rotational symmetry number 12.
 Rotational temperatures (Kelvin)      3.25966     3.25966     3.25966
 Rotational constants (GHZ):          67.92030    67.92030    67.92030
 Zero-point vibrational energy      65929.8 (Joules/Mol)
                                   15.75760 (Kcal/Mol)
 Vibrational temperatures:   1170.41  1170.41  1209.22  1209.22  1209.22
          (Kelvin)           2442.14  2442.14  2442.14  2564.16

 Zero-point correction=                           0.025111 (Hartree/Particle)
 Thermal correction to Energy=                    0.028304
 Thermal correction to Enthalpy=                  0.029248
 Thermal correction to Gibbs Free Energy=         0.005580
 Sum of electronic and zero-point Energies=           -242.852338
 Sum of electronic and thermal Energies=              -242.849146
 Sum of electronic and thermal Enthalpies=            -242.848202
 Sum of electronic and thermal Free Energies=         -242.871869

                     E (Thermal)             CV                S
                      KCal/Mol        Cal/Mol-Kelvin    Cal/Mol-Kelvin
 Total                   17.761              9.116             49.812
 Electronic               0.000              0.000              0.000
 Translational            0.889              2.981             36.228
 Rotational               0.889              2.981             12.641
 Vibrational             15.983              3.155              0.942

 Optimization completed.
    -- Stationary point found.
 Normal termination of Gaussian 16 at Sat Jun 14 16:11:41 2025.
