 Gaussian 16, Revision B.01,
 Gaussian 16:  EM64L-G16RevB.01 20-Dec-2017

 ----------------------------------------------
 # opt freq hf/3-21g pop=full geom=connectivity
 ----------------------------------------------

 ------------
 Optimisation
 ------------
 Symbolic Z-matrix:
 Charge =  0 Multiplicity = 1

 SCF Done:  E(RHF) =  -268.236050177     A.U. after   12 cycles
 SCF Done:  E(RHF) =  -268.240098622     A.U. after   12 cycles
 SCF Done:  E(RHF) =  -268.240206562     A.U. after   11 cycles
 SCF Done:  E(RHF) =  -268.240210097     A.U. after    8 cycles
 Optimization completed.
    -- Stationary point found.
 Normal termination of Gaussian 16 at Thu Jun 12 20:22:55 2025.

 --------------------------------------------------------------
 #N Geom=AllCheck Guess=TCheck SCRF=Check GenChk RHF/3-21G Freq
 --------------------------------------------------------------

 Structure from the checkpoint file:  "Toluene.chk"
 ------------
 Optimisation
 ------------
 Charge =  0 Multiplicity = 1

                         Standard orientation:
 ---------------------------------------------------------------------
 Center     Atomic      Atomic             Coordinates (Angstroms)
 Number     Number       Type             X           Y           Z
 ---------------------------------------------------------------------
      1          6           0       -1.889813   -0.000451    0.006806
      2          6           0       -1.191872   -1.195432    0.001738
      3          6           0        0.191870   -1.193092   -0.007655
      4          6           0        0.899912    0.000667   -0.010392
      5          6           0        0.191107    1.193595   -0.007649
      6          6           0       -1.192952    1.194815    0.001742
      7          1           0       -2.961803   -0.000924    0.012117
      8          1           0       -1.723074   -2.127012    0.002690
      9          1           0        0.725464   -2.124212   -0.014644
     10          1           0        0.723796    2.125176   -0.014656
     11          1           0       -1.724780    2.126037    0.002670
     12          6           0        2.417252    0.000145    0.008488
     13          1           0        2.782367   -0.026280    1.030783
     14          1           0        2.812386   -0.864467   -0.511373
     15          1           0        2.812619    0.890197   -0.466050
 ---------------------------------------------------------------------

 SCF Done:  E(RHF) =  -268.240210097     A.U. after    1 cycles

 The electronic state is 1-A.
 Alpha  occ. eigenvalues --  -11.18454 -11.17304 -11.17296 -11.16989 -11.16947
 Alpha  occ. eigenvalues --  -11.16930 -11.16260  -1.15880  -1.04513  -1.01353
 Alpha  occ. eigenvalues --   -0.93576  -0.82732  -0.80034  -0.70217  -0.63889
 Alpha  occ. eigenvalues --   -0.62783  -0.58871  -0.57813  -0.56912  -0.54004
 Alpha  occ. eigenvalues --   -0.49369  -0.48354  -0.48177  -0.33682  -0.32632
 Alpha virt. eigenvalues --    0.15239   0.15424   0.26250   0.29939   0.31421
 Alpha virt. eigenvalues --    0.33260   0.35090   0.35467   0.38004   0.38064
 Alpha virt. eigenvalues --    0.40779   0.44138   0.51636   0.53360   0.54687

 Mulliken charges:
               1
     1  C   -0.248255
     2  C   -0.230037
     3  C   -0.232587
     4  C   -0.070366
     5  C   -0.232789
     6  C   -0.230039
     7  H    0.236958
     8  H    0.237592
     9  H    0.232863
    10  H    0.232831
    11  H    0.237598
    12  C   -0.586182
    13  H    0.224634
    14  H    0.214134
    15  H    0.213645
 Sum of Mulliken charges =  -0.00000

 Dipole moment (field-independent basis, Debye):
    X=              0.3272    Y=             -0.0031    Z=              0.0375  Tot=              0.3293
 Quadrupole moment (field-independent basis, Debye-Ang):
   XX=            -37.8628   YY=            -38.2928   ZZ=            -47.4482
   XY=             -0.0048   XZ=              0.0253   YZ=             -0.0001

  Exact polarizability:  81.306  -0.039  71.818   0.115  -0.001  23.975
 Approx polarizability:  73.597  -0.043  71.932   0.002  -0.002  22.413

 ******    1 imaginary frequencies (negative Signs) ******

                      1                      2                      3
                      A                      A                      A
 Frequencies --    -29.5864               233.7287               372.5124
 Red. masses --      1.0372                 2.9938                 2.5477
 Frc consts  --      0.0005                 0.0964                 0.2083
 IR Inten    --      0.2072                 3.2907                 0.4911
 Raman Activ --      0.8415                 4.4920                 0.0521

                      4                      5                      6
                      A                      A                      A
 Frequencies --    468.5176               533.5301               578.8633
 Red. masses --      2.7649                 2.6695                 4.8752
 Frc consts  --      0.3576                 0.4477                 0.9625
 IR Inten    --      0.0012                12.3824                 0.9557
 Raman Activ --      0.0328                 0.4257                 7.4282

                      7                      8                      9
                      A                      A                      A
 Frequencies --    713.6877               807.7297               849.2204
 Red. masses --      6.4405                 1.8506                 2.3630
 Frc consts  --      1.9328                 0.7114                 1.0040
 IR Inten    --      0.1173                35.4456                27.0713
 Raman Activ --      4.5238                 0.3058                 8.3878

                     10                     11                     12
                      A                      A                      A
 Frequencies --    856.8937               989.3693              1058.4377
 Red. masses --      2.0476                 1.2485                 1.3120
 Frc consts  --      0.8858                 0.7200                 0.8660
 IR Inten    --     36.8792                 0.0083                 0.2753
 Raman Activ --      7.0498                 5.0639                 3.4347

                     13                     14                     15
                      A                      A                      A
 Frequencies --   1100.2174              1107.2063              1143.0857
 Red. masses --      1.6024                 4.3975                 2.8526
 Frc consts  --      1.1428                 3.1762                 2.1961
 IR Inten    --      0.0637                 0.4677                 1.6435
 Raman Activ --      0.7470                30.8341                 0.0622

                     16                     17                     18
                      A                      A                      A
 Frequencies --   1153.6055              1180.7283              1199.9201
 Red. masses --      1.4008                 1.4018                 1.8621
 Frc consts  --      1.0984                 1.1514                 1.5797
 IR Inten    --      0.0003                 1.0981                 4.5328
 Raman Activ --      0.0108                 0.5041                 0.4086

                     19                     20                     21
                      A                      A                      A
 Frequencies --   1210.2779              1261.4574              1308.6331
 Red. masses --      1.5950                 2.1956                 3.6357
 Frc consts  --      1.3765                 2.0585                 3.6684
 IR Inten    --     10.4942                 0.0588                 0.0806
 Raman Activ --      0.6193                 4.9258                 3.0229

                     22                     23                     24
                      A                      A                      A
 Frequencies --   1332.3024              1356.9846              1512.4300
 Red. masses --      1.2022                 1.3561                 1.3428
 Frc consts  --      1.2573                 1.4713                 1.8098
 IR Inten    --      0.5241                 0.0787                 0.1116
 Raman Activ --      6.5768                 0.7416                 0.8548

                     25                     26                     27
                      A                      A                      A
 Frequencies --   1577.3496              1618.2755              1665.4234
 Red. masses --      1.1953                 1.7271                 1.0787
 Frc consts  --      1.7522                 2.6648                 1.7628
 IR Inten    --      2.9782                 3.2263                 9.2255
 Raman Activ --     14.9992                 3.0537                23.1615

                     28                     29                     30
                      A                      A                      A
 Frequencies --   1666.0544              1672.1259              1755.0964
 Red. masses --      1.1301                 1.8276                 4.2607
 Frc consts  --      1.8481                 3.0107                 7.7326
 IR Inten    --     15.3550                16.0999                 1.0220
 Raman Activ --     13.6818                 2.5608                13.8461

                     31                     32                     33
                      A                      A                      A
 Frequencies --   1775.5541              3194.2997              3245.5541
 Red. masses --      4.6332                 1.0374                 1.0962
 Frc consts  --      8.6060                 6.2363                 6.8031
 IR Inten    --      5.9383                24.0814                23.6235
 Raman Activ --     18.3030               136.4787                79.1711

                     34                     35                     36
                      A                      A                      A
 Frequencies --   3266.3966              3341.9695              3344.3815
 Red. masses --      1.1013                 1.0865                 1.0882
 Frc consts  --      6.9228                 7.1495                 7.1709
 IR Inten    --     16.3211                 6.0870                 2.6734
 Raman Activ --     58.8920                 9.6819                98.3236

                     37                     38                     39
                      A                      A                      A
 Frequencies --   3357.0244              3365.8097              3381.1508
 Red. masses --      1.0911                 1.0942                 1.0990
 Frc consts  --      7.2450                 7.3037                 7.4022
 IR Inten    --     10.3430                37.8254                13.6166
 Raman Activ --    102.0372                15.0118               235.5136

 - Thermochemistry -
 -------------------
 Temperature   298.150 Kelvin.  Pressure   1.00000 Atm.
 Atom     1 has atomic number  6 and mass  12.00000

 Molecular mass:    92.06260 amu.
 Principal axes and moments of inertia in atomic units:
                           1         2         3
     Eigenvalues --   320.61784 709.796861019.28703
           X            1.00000  -0.00002   0.00027
           Y            0.00002   1.00000   0.00000
           Z           -0.00027  -0.00000   1.00000
 This molecule is an asymmetric top.
 Rotational symmetry number  1.
 Rotational temperatures (Kelvin)      0.27015     0.12203     0.08498
 Rotational constants (GHZ):           5.62895     2.54262     1.77059
    1 imaginary frequencies ignored.
 Zero-point vibrational energy     362204.1 (Joules/Mol)
                                   86.56887 (Kcal/Mol)
 Warning -- explicit consideration of   5 degrees of freedom as
           vibrations may cause significant error
 Vibrational temperatures:    336.28   535.96   674.09   767.63   832.86
          (Kelvin)           1026.84  1162.14  1221.84  1232.88  1423.48
                             1522.86  1582.97  1593.02  1644.65  1659.78
                             1698.80  1726.42  1741.32  1814.96  1882.83
                             1916.89  1952.40  2176.05  2269.45  2328.34
                             2396.17  2397.08  2405.82  2525.19  2554.63
                             4595.88  4669.63  4699.62  4808.35  4811.82
                             4830.01  4842.65  4864.72

 Zero-point correction=                           0.137956 (Hartree/Particle)
 Thermal correction to Energy=                    0.142842
 Thermal correction to Enthalpy=                  0.143786
 Thermal correction to Gibbs Free Energy=         0.109269
 Sum of electronic and zero-point Energies=           -268.102254
 Sum of electronic and thermal Energies=              -268.097368
 Sum of electronic and thermal Enthalpies=            -268.096424
 Sum of electronic and thermal Free Energies=         -268.130941

                     E (Thermal)             CV                S
                      KCal/Mol        Cal/Mol-Kelvin    Cal/Mol-Kelvin
 Total                   89.635             18.718             72.647
 Electronic               0.000              0.000              0.000
 Translational            0.889              2.981             39.471
 Rotational               0.889              2.981             26.942
 Vibrational             87.857             12.757              6.234
 Vibration     1          0.654              1.789              1.850
 Vibration     2          0.744              1.529              1.069
 Vibration     3          0.826              1.320              0.742
 Vibration     4          0.889              1.176              0.579
 Vibration     5          0.935              1.077              0.487

                           ! Non-Optimized Parameters !
 Normal termination of Gaussian 16 at Thu Jun 12 20:22:58 2025.
