 Gaussian 16, Revision B.01,
 Gaussian 16:  EM64L-G16RevB.01 20-Dec-2017

 ----------------------------------------------
 # opt freq hf/3-21g pop=full geom=connectivity
 ----------------------------------------------

 -----------------------
 Methyl Toluene opt+Freq
 -----------------------
 Symbolic Z-matrix:
 Charge =  0 Multiplicity = 1

 SCF Done:  E(RHF) =  -268.237608269     A.U. after   12 cycles
 SCF Done:  E(RHF) =  -268.240095835     A.U. after   11 cycles
 SCF Done:  E(RHF) =  -268.240207368     A.U. after   10 cycles
 SCF Done:  E(RHF) =  -268.240210123     A.U. after    8 cycles
 Optimization completed.
    -- Stationary point found.
 Normal termination of Gaussian 16 at Mon Jun  9 20:01:56 2025.

 --------------------------------------------------------------
 #N Geom=AllCheck Guess=TCheck SCRF=Check GenChk RHF/3-21G Freq
 --------------------------------------------------------------

 Structure from the checkpoint file:  "methToluene.chk"
 -----------------------
 Methyl Toluene opt+Freq
 -----------------------
 Charge =  0 Multiplicity = 1

                         Standard orientation:
 ---------------------------------------------------------------------
 Center     Atomic      Atomic             Coordinates (Angstroms)
 Number     Number       Type             X           Y           Z
 ---------------------------------------------------------------------
      1          6           0        0.006300   -1.889769    0.000000
      2          6           0        0.006297   -1.192372    1.195136
      3          6           0        0.006297    0.191532    1.193349
      4          6           0        0.004555    0.899991   -0.000000
      5          6           0        0.006297    0.191532   -1.193349
      6          6           0        0.006297   -1.192372   -1.195136
      7          1           0        0.008351   -2.961674    0.000000
      8          1           0        0.008996   -1.723820    2.126462
      9          1           0        0.009499    0.724655    2.124665
     10          1           0        0.009499    0.724655   -2.124665
     11          1           0        0.008996   -1.723820   -2.126462
     12          6           0       -0.025072    2.417059   -0.000000
     13          1           0       -1.050257    2.775029   -0.000000
     14          1           0        0.469538    2.815688    0.877648
     15          1           0        0.469538    2.815688   -0.877648
 ---------------------------------------------------------------------

 SCF Done:  E(RHF) =  -268.240210123     A.U. after    1 cycles

 The electronic state is 1-A'.
 Alpha  occ. eigenvalues --  -11.18453 -11.17301 -11.17295 -11.16987 -11.16945
 Alpha  occ. eigenvalues --  -11.16929 -11.16259  -1.15880  -1.04515  -1.01354
 Alpha  occ. eigenvalues --   -0.93576  -0.82733  -0.80035  -0.70219  -0.63890
 Alpha  occ. eigenvalues --   -0.62786  -0.58873  -0.57814  -0.56912  -0.54005
 Alpha  occ. eigenvalues --   -0.49369  -0.48354  -0.48179  -0.33682  -0.32630
 Alpha virt. eigenvalues --    0.15243   0.15421   0.26253   0.29939   0.31423
 Alpha virt. eigenvalues --    0.33257   0.35099   0.35464   0.38011   0.38058
 Alpha virt. eigenvalues --    0.40782   0.44141   0.51638   0.53361   0.54695

 Mulliken charges:
               1
     1  C   -0.248246
     2  C   -0.230056
     3  C   -0.232675
     4  C   -0.070378
     5  C   -0.232675
     6  C   -0.230056
     7  H    0.236960
     8  H    0.237605
     9  H    0.232842
    10  H    0.232842
    11  H    0.237605
    12  C   -0.586171
    13  H    0.224642
    14  H    0.213880
    15  H    0.213880
 Sum of Mulliken charges =   0.00000

 Dipole moment (field-independent basis, Debye):
    X=             -0.0402    Y=              0.3268    Z=              0.0000  Tot=              0.3292
 Quadrupole moment (field-independent basis, Debye-Ang):
   XX=            -47.4466   YY=            -37.8646   ZZ=            -38.2922
   XY=             -0.0918   XZ=             -0.0000   YZ=             -0.0000

  Exact polarizability:  23.979  -0.509  81.296   0.000  -0.000  71.813
 Approx polarizability:  22.416  -0.352  73.591   0.000  -0.000  71.930

 ******    1 imaginary frequencies (negative Signs) ******

                      1                      2                      3
                     A"                     A'                     A"
 Frequencies --    -27.0877               233.5954               372.4709
 Red. masses --      1.0371                 2.9939                 2.5477
 Frc consts  --      0.0004                 0.0963                 0.2082
 IR Inten    --      0.2072                 3.2970                 0.4907
 Raman Activ --      0.8441                 4.4918                 0.0513

                      4                      5                      6
                     A"                     A'                     A'
 Frequencies --    468.4199               533.4443               578.8945
 Red. masses --      2.7638                 2.6682                 4.8750
 Frc consts  --      0.3573                 0.4473                 0.9625
 IR Inten    --      0.0011                12.4045                 0.9587
 Raman Activ --      0.0328                 0.4254                 7.4246

                      7                      8                      9
                     A"                     A'                     A'
 Frequencies --    713.6593               807.5764               849.0887
 Red. masses --      6.4395                 1.8441                 2.3023
 Frc consts  --      1.9323                 0.7086                 0.9780
 IR Inten    --      0.1175                35.8150                28.3966
 Raman Activ --      4.5227                 0.3078                 8.0341

                     10                     11                     12
                     A'                     A"                     A'
 Frequencies --    856.7443               989.0568              1058.2157
 Red. masses --      2.1031                 1.2485                 1.3123
 Frc consts  --      0.9095                 0.7196                 0.8659
 IR Inten    --     35.1671                 0.0085                 0.2794
 Raman Activ --      7.4057                 5.0602                 3.4309

                     13                     14                     15
                     A"                     A'                     A'
 Frequencies --   1100.2893              1107.1942              1143.0229
 Red. masses --      1.5974                 4.4351                 2.8523
 Frc consts  --      1.1394                 3.2034                 2.1956
 IR Inten    --      0.0525                 0.4785                 1.6405
 Raman Activ --      0.6109                30.9515                 0.0624

                     16                     17                     18
                     A"                     A'                     A"
 Frequencies --   1153.3751              1180.5050              1199.9586
 Red. masses --      1.4011                 1.4021                 1.8606
 Frc consts  --      1.0982                 1.1512                 1.5784
 IR Inten    --      0.0004                 1.0754                 4.5371
 Raman Activ --      0.0107                 0.5076                 0.4098

                     19                     20                     21
                     A'                     A"                     A'
 Frequencies --   1210.2598              1261.4585              1308.7496
 Red. masses --      1.5952                 2.1945                 3.6329
 Frc consts  --      1.3766                 2.0575                 3.6662
 IR Inten    --     10.5312                 0.0552                 0.0795
 Raman Activ --      0.6292                 4.9273                 3.0182

                     22                     23                     24
                     A'                     A"                     A"
 Frequencies --   1332.2322              1356.7944              1512.3459
 Red. masses --      1.2025                 1.3565                 1.3427
 Frc consts  --      1.2575                 1.4712                 1.8094
 IR Inten    --      0.5235                 0.0775                 0.1105
 Raman Activ --      6.5834                 0.7386                 0.8531

                     25                     26                     27
                     A'                     A"                     A'
 Frequencies --   1577.3723              1618.2047              1665.4242
 Red. masses --      1.1953                 1.7279                 1.0794
 Frc consts  --      1.7523                 2.6658                 1.7639
 IR Inten    --      2.9824                 3.2262                 9.1720
 Raman Activ --     15.0027                 3.0516                23.3261

                     28                     29                     30
                     A"                     A'                     A"
 Frequencies --   1666.0235              1672.0575              1755.0351
 Red. masses --      1.1298                 1.8269                 4.2610
 Frc consts  --      1.8476                 3.0094                 7.7327
 IR Inten    --     15.4316                16.0715                 1.0194
 Raman Activ --     13.4931                 2.5757                13.8385

                     31                     32                     33
                     A'                     A'                     A'
 Frequencies --   1775.5739              3194.1594              3245.4795
 Red. masses --      4.6361                 1.0374                 1.0961
 Frc consts  --      8.6116                 6.2362                 6.8022
 IR Inten    --      5.9411                24.0709                23.6431
 Raman Activ --     18.3067               136.5830                79.0604

                     34                     35                     36
                     A"                     A'                     A"
 Frequencies --   3266.4185              3342.7628              3345.0340
 Red. masses --      1.1013                 1.0865                 1.0882
 Frc consts  --      6.9230                 7.1531                 7.1739
 IR Inten    --     16.3215                 6.2412                 2.8293
 Raman Activ --     58.9528                 9.2837                98.0372

                     37                     38                     39
                     A'                     A"                     A'
 Frequencies --   3357.8020              3366.6681              3382.0644
 Red. masses --      1.0911                 1.0942                 1.0989
 Frc consts  --      7.2481                 7.3072                 7.4060
 IR Inten    --     10.0747                37.6428                13.7232
 Raman Activ --    102.6364                15.6148               234.7959

 - Thermochemistry -
 -------------------
 Temperature   298.150 Kelvin.  Pressure   1.00000 Atm.
 Atom     1 has atomic number  6 and mass  12.00000

 Molecular mass:    92.06260 amu.
 Principal axes and moments of inertia in atomic units:
                           1         2         3
     Eigenvalues --   320.61955 709.757031019.24799
           X           -0.00657  -0.00000   0.99998
           Y            0.99998   0.00000   0.00657
           Z           -0.00000   1.00000  -0.00000
 This molecule is an asymmetric top.
 Rotational symmetry number  1.
 Rotational temperatures (Kelvin)      0.27015     0.12203     0.08498
 Rotational constants (GHZ):           5.62892     2.54276     1.77066
    1 imaginary frequencies ignored.
 Zero-point vibrational energy     362213.9 (Joules/Mol)
                                   86.57119 (Kcal/Mol)
 Warning -- explicit consideration of   5 degrees of freedom as
           vibrations may cause significant error
 Vibrational temperatures:    336.09   535.90   673.95   767.51   832.90
          (Kelvin)           1026.80  1161.92  1221.65  1232.66  1423.03
                             1522.54  1583.07  1593.01  1644.55  1659.45
                             1698.48  1726.47  1741.29  1814.96  1883.00
                             1916.78  1952.12  2175.93  2269.49  2328.24
                             2396.17  2397.04  2405.72  2525.10  2554.65
                             4595.68  4669.52  4699.65  4809.49  4812.76
                             4831.13  4843.88  4866.04

 Zero-point correction=                           0.137960 (Hartree/Particle)
 Thermal correction to Energy=                    0.142846
 Thermal correction to Enthalpy=                  0.143791
 Thermal correction to Gibbs Free Energy=         0.109273
 Sum of electronic and zero-point Energies=           -268.102250
 Sum of electronic and thermal Energies=              -268.097364
 Sum of electronic and thermal Enthalpies=            -268.096419
 Sum of electronic and thermal Free Energies=         -268.130937

                     E (Thermal)             CV                S
                      KCal/Mol        Cal/Mol-Kelvin    Cal/Mol-Kelvin
 Total                   89.638             18.721             72.649
 Electronic               0.000              0.000              0.000
 Translational            0.889              2.981             39.471
 Rotational               0.889              2.981             26.942
 Vibrational             87.860             12.759              6.236
 Vibration     1          0.654              1.789              1.851
 Vibration     2          0.744              1.529              1.070
 Vibration     3          0.826              1.320              0.742
 Vibration     4          0.888              1.176              0.580
 Vibration     5          0.935              1.077              0.487

 Optimization completed.
    -- Stationary point found.
 Normal termination of Gaussian 16 at Mon Jun  9 20:02:00 2025.
