 Gaussian 16, Revision B.01,
 Gaussian 16:  EM64L-G16RevB.01 20-Dec-2017

 -------------------------------------
 # opt freq hf/3-21g geom=connectivity
 -------------------------------------

 ------------
 Optimisation
 ------------
 Symbolic Z-matrix:
 Charge =  0 Multiplicity = 1

 SCF Done:  E(RHF) =  -268.167138462     A.U. after   14 cycles
 SCF Done:  E(RHF) =  -268.180899916     A.U. after   13 cycles
 SCF Done:  E(RHF) =  -268.181938159     A.U. after   13 cycles
 SCF Done:  E(RHF) =  -268.182015442     A.U. after   11 cycles
 SCF Done:  E(RHF) =  -268.182047640     A.U. after   11 cycles
 SCF Done:  E(RHF) =  -268.182064692     A.U. after   11 cycles
 SCF Done:  E(RHF) =  -268.182073231     A.U. after   11 cycles
 SCF Done:  E(RHF) =  -268.182074231     A.U. after    9 cycles
 SCF Done:  E(RHF) =  -268.182074321     A.U. after    9 cycles
 Optimization completed.
    -- Stationary point found.
 Normal termination of Gaussian 16 at Mon Jun  9 22:10:23 2025.

 --------------------------------------------------------------
 #N Geom=AllCheck Guess=TCheck SCRF=Check GenChk RHF/3-21G Freq
 --------------------------------------------------------------

 Structure from the checkpoint file:  "toluene_isomer.chk"
 ------------
 Optimisation
 ------------
 Charge =  0 Multiplicity = 1

                         Standard orientation:
 ---------------------------------------------------------------------
 Center     Atomic      Atomic             Coordinates (Angstroms)
 Number     Number       Type             X           Y           Z
 ---------------------------------------------------------------------
      1          6           0       -1.244775   -1.135301   -0.066066
      2          6           0       -1.833480    0.046206   -0.102697
      3          6           0       -1.054725    1.286111    0.031114
      4          6           0        0.270084    1.267133    0.086949
      5          6           0        1.034917    0.010929    0.018496
      6          6           0        0.245497   -1.291067    0.156369
      7          1           0       -1.815178   -2.039618   -0.161760
      8          1           0       -2.894437    0.129658   -0.234985
      9          1           0       -1.588609    2.215530    0.062072
     10          1           0        0.832724    2.178667    0.152709
     11          6           0        2.349811    0.014270   -0.133273
     12          1           0        2.906368    0.930711   -0.191095
     13          1           0        2.916868   -0.894695   -0.205556
     14          1           0        0.395417   -1.679131    1.163177
     15          1           0        0.642874   -2.030812   -0.529918
 ---------------------------------------------------------------------

 SCF Done:  E(RHF) =  -268.182074321     A.U. after    1 cycles

 The electronic state is 1-A.
 Alpha  occ. eigenvalues --  -11.18785 -11.17702 -11.17638 -11.17523 -11.17328
 Alpha  occ. eigenvalues --  -11.17055 -11.15496  -1.14327  -1.05103  -1.02170
 Alpha  occ. eigenvalues --   -0.92583  -0.82629  -0.77339  -0.69289  -0.65405
 Alpha  occ. eigenvalues --   -0.63596  -0.59793  -0.59101  -0.56378  -0.54015
 Alpha  occ. eigenvalues --   -0.49119  -0.45774  -0.44723  -0.39038  -0.28461
 Alpha virt. eigenvalues --    0.10546   0.21158   0.26860   0.28978   0.30366
 Alpha virt. eigenvalues --    0.31073   0.33949   0.35701   0.36591   0.37840
 Alpha virt. eigenvalues --    0.39458   0.43305   0.46443   0.52266   0.55175

 Mulliken charges:
               1
     1  C   -0.186739
     2  C   -0.251830
     3  C   -0.243143
     4  C   -0.206834
     5  C   -0.053380
     6  C   -0.487315
     7  H    0.230333
     8  H    0.234357
     9  H    0.237068
    10  H    0.235854
    11  C   -0.410111
    12  H    0.207769
    13  H    0.206286
    14  H    0.249873
    15  H    0.237812
 Sum of Mulliken charges =  -0.00000

 Dipole moment (field-independent basis, Debye):
    X=             -0.2452    Y=             -0.3663    Z=              0.1105  Tot=              0.4544
 Quadrupole moment (field-independent basis, Debye-Ang):
   XX=            -39.5803   YY=            -37.9127   ZZ=            -47.3765
   XY=             -0.2182   XZ=              0.2011   YZ=              0.1145

  Exact polarizability:  98.719  -0.762  69.389  -1.354   0.362  24.717
 Approx polarizability:  81.950  -3.992  61.185  -0.923   0.562  23.527

                      1                      2                      3
                      A                      A                      A
 Frequencies --     55.2468               288.9372               416.9428
 Red. masses --      2.4099                 2.4485                 2.3459
 Frc consts  --      0.0043                 0.1204                 0.2403
 IR Inten    --      0.3350                 1.1952                 1.2220
 Raman Activ --      2.1039                 3.1905                 2.3337

                      4                      5                      6
                      A                      A                      A
 Frequencies --    479.6147               530.0520               602.5914
 Red. masses --      2.5953                 3.6304                 2.0685
 Frc consts  --      0.3517                 0.6010                 0.4425
 IR Inten    --      9.8354                 5.8353                19.9376
 Raman Activ --      6.1466                10.0364                10.2755

                      7                      8                      9
                      A                      A                      A
 Frequencies --    647.9442               755.0392               788.0203
 Red. masses --      5.6602                 1.0946                 4.2557
 Frc consts  --      1.4001                 0.3676                 1.5570
 IR Inten    --      3.4093                41.6416                 2.4661
 Raman Activ --      3.7812                 3.4233                12.3047

                     10                     11                     12
                      A                      A                      A
 Frequencies --    847.7623               929.3393               972.5218
 Red. masses --      1.4307                 1.3618                 3.0066
 Frc consts  --      0.6058                 0.6930                 1.6754
 IR Inten    --     22.8053                12.0459                 2.7906
 Raman Activ --     22.3272                16.3511                 7.1212

                     13                     14                     15
                      A                      A                      A
 Frequencies --    990.6397              1040.4070              1072.6851
 Red. masses --      2.7042                 1.8529                 2.8092
 Frc consts  --      1.5636                 1.1817                 1.9045
 IR Inten    --      0.9925                26.4654                23.9121
 Raman Activ --      8.8314                 1.0706                 8.0734

                     16                     17                     18
                      A                      A                      A
 Frequencies --   1096.0134              1099.1183              1154.6159
 Red. masses --      1.6747                 1.7308                 1.2976
 Frc consts  --      1.1853                 1.2320                 1.0192
 IR Inten    --     26.7258                10.6526                 0.4084
 Raman Activ --      7.4607                 2.5976                 3.1660

                     19                     20                     21
                      A                      A                      A
 Frequencies --   1169.4095              1308.6859              1339.4204
 Red. masses --      1.4092                 1.2323                 1.1044
 Frc consts  --      1.1354                 1.2434                 1.1674
 IR Inten    --      1.3272                 1.4704                 1.7059
 Raman Activ --     15.9873                 1.0397                35.2994

                     22                     23                     24
                      A                      A                      A
 Frequencies --   1385.6003              1429.4206              1476.9826
 Red. masses --      1.1104                 2.0018                 1.4192
 Frc consts  --      1.2561                 2.4099                 1.8241
 IR Inten    --      3.5427                 0.1662                 3.0201
 Raman Activ --     13.5070                47.8390                 5.4085

                     25                     26                     27
                      A                      A                      A
 Frequencies --   1537.3171              1572.9196              1615.5127
 Red. masses --      1.3748                 1.4756                 1.1812
 Frc consts  --      1.9143                 2.1510                 1.8163
 IR Inten    --      0.0985                 2.4318                 2.3688
 Raman Activ --      0.7646                13.5958                35.0606

                     28                     29                     30
                      A                      A                      A
 Frequencies --   1623.0559              1788.1109              1828.8028
 Red. masses --      1.1809                 5.8925                 4.6313
 Frc consts  --      1.8329                11.1005                 9.1261
 IR Inten    --      4.3151                 4.5431                16.9528
 Raman Activ --     33.1852               126.7497               158.7983

                     31                     32                     33
                      A                      A                      A
 Frequencies --   1874.1900              3167.1842              3229.2366
 Red. masses --      5.2141                 1.0694                 1.0893
 Frc consts  --     10.7909                 6.3204                 6.6929
 IR Inten    --      2.9765                15.6262                13.1272
 Raman Activ --    105.3945               115.7324                69.3675

                     34                     35                     36
                      A                      A                      A
 Frequencies --   3312.5820              3338.5090              3344.1114
 Red. masses --      1.0624                 1.0848                 1.0863
 Frc consts  --      6.8689                 7.1240                 7.1576
 IR Inten    --      7.6425                 1.3639                 0.8421
 Raman Activ --     79.6539                30.2700               111.2227

                     37                     38                     39
                      A                      A                      A
 Frequencies --   3362.8146              3376.7973              3386.2351
 Red. masses --      1.0982                 1.0994                 1.1144
 Frc consts  --      7.3169                 7.3863                 7.5289
 IR Inten    --     38.1001                21.2390                16.2444
 Raman Activ --     61.3559               224.7741                78.9282

 - Thermochemistry -
 -------------------
 Temperature   298.150 Kelvin.  Pressure   1.00000 Atm.
 Atom     1 has atomic number  6 and mass  12.00000

 Molecular mass:    92.06260 amu.
 Principal axes and moments of inertia in atomic units:
                           1         2         3
     Eigenvalues --   356.55097 672.319111010.10653
           X            1.00000  -0.00304  -0.00017
           Y            0.00304   0.99999  -0.00107
           Z            0.00018   0.00107   1.00000
 This molecule is an asymmetric top.
 Rotational symmetry number  1.
 Rotational temperatures (Kelvin)      0.24292     0.12883     0.08575
 Rotational constants (GHZ):           5.06166     2.68435     1.78668
 Zero-point vibrational energy     360281.7 (Joules/Mol)
                                   86.10938 (Kcal/Mol)
 Warning -- explicit consideration of   6 degrees of freedom as
           vibrations may cause significant error
 Vibrational temperatures:     79.49   415.72   599.89   690.06   762.63
          (Kelvin)            866.99   932.25  1086.33  1133.79  1219.74
                             1337.11  1399.24  1425.31  1496.91  1543.35
                             1576.92  1581.39  1661.23  1682.52  1882.91
                             1927.13  1993.57  2056.62  2125.05  2211.86
                             2263.08  2324.36  2335.22  2572.69  2631.24
                             2696.54  4556.87  4646.15  4766.07  4803.37
                             4811.43  4838.34  4858.46  4872.04

 Zero-point correction=                           0.137224 (Hartree/Particle)
 Thermal correction to Energy=                    0.142918
 Thermal correction to Enthalpy=                  0.143862
 Thermal correction to Gibbs Free Energy=         0.107254
 Sum of electronic and zero-point Energies=           -268.044850
 Sum of electronic and thermal Energies=              -268.039156
 Sum of electronic and thermal Enthalpies=            -268.038212
 Sum of electronic and thermal Free Energies=         -268.074820

                     E (Thermal)             CV                S
                      KCal/Mol        Cal/Mol-Kelvin    Cal/Mol-Kelvin
 Total                   89.682             21.250             77.049
 Electronic               0.000              0.000              0.000
 Translational            0.889              2.981             39.471
 Rotational               0.889              2.981             26.984
 Vibrational             87.905             15.289             10.593
 Vibration     1          0.596              1.975              4.620
 Vibration     2          0.686              1.694              1.480
 Vibration     3          0.780              1.433              0.902
 Vibration     4          0.836              1.295              0.711
 Vibration     5          0.885              1.184              0.587
 Vibration     6          0.961              1.026              0.445

 Optimization completed.
    -- Stationary point found.
 Normal termination of Gaussian 16 at Mon Jun  9 22:10:26 2025.
