 Gaussian 16, Revision B.01,
 Gaussian 16:  EM64L-G16RevB.01 20-Dec-2017

 ----------------------------------------------
 # opt freq hf/3-21g pop=full geom=connectivity
 ----------------------------------------------

 ------------
 optimisation
 ------------
 Symbolic Z-matrix:
 Charge =  0 Multiplicity = 1

 SCF Done:  E(RHF) =  -242.282011208     A.U. after    8 cycles
 SCF Done:  E(RHF) =  -242.284100397     A.U. after    7 cycles
 SCF Done:  E(RHF) =  -242.284112304     A.U. after    6 cycles
 Optimization completed.
    -- Stationary point found.
 Normal termination of Gaussian 16 at Sat Jun 14 16:06:49 2025.

 --------------------------------------------------------------
 #N Geom=AllCheck Guess=TCheck SCRF=Check GenChk RHF/3-21G Freq
 --------------------------------------------------------------

 Structure from the checkpoint file:  "AlH3_opt.chk"
 ------------
 optimisation
 ------------
 Charge =  0 Multiplicity = 1

                         Standard orientation:
 ---------------------------------------------------------------------
 Center     Atomic      Atomic             Coordinates (Angstroms)
 Number     Number       Type             X           Y           Z
 ---------------------------------------------------------------------
      1         13           0        0.000000    0.000000    0.000000
      2          1           0        0.000000    1.599495    0.000000
      3          1           0        1.385203   -0.799748    0.000000
      4          1           0       -1.385203   -0.799748    0.000000
 ---------------------------------------------------------------------

 SCF Done:  E(RHF) =  -242.284112304     A.U. after    1 cycles

 The electronic state is 1-A1'.
 Alpha  occ. eigenvalues --  -58.05997  -4.87207  -3.17567  -3.17432  -3.17432
 Alpha  occ. eigenvalues --   -0.57219  -0.42617  -0.42617
 Alpha virt. eigenvalues --    0.03080   0.17847   0.17847   0.19109   0.29286
 Alpha virt. eigenvalues --    0.37037   0.38917   0.38917   1.33732   1.37727
 Alpha virt. eigenvalues --    1.37727

 Mulliken charges:
               1
     1  Al   0.795343
     2  H   -0.265114
     3  H   -0.265114
     4  H   -0.265114
 Sum of Mulliken charges =   0.00000

 Dipole moment (field-independent basis, Debye):
    X=              0.0000    Y=              0.0000    Z=              0.0000  Tot=              0.0000
 Quadrupole moment (field-independent basis, Debye-Ang):
   XX=            -19.4026   YY=            -19.4026   ZZ=            -11.5817
   XY=              0.0000   XZ=              0.0000   YZ=             -0.0000

  Exact polarizability:  25.098  -0.000  25.098   0.000   0.000  12.189
 Approx polarizability:  19.527  -0.000  19.527   0.000   0.000   8.783

                      1                      2                      3
                     A2"                    E'                     E'
 Frequencies --    738.8503               802.4521               802.4521
 Red. masses --      1.1161                 1.0595                 1.0595
 Frc consts  --      0.3590                 0.4020                 0.4020
 IR Inten    --    512.7840               341.0392               341.0392
 Raman Activ --      0.0000                30.6746                30.6746

                      4                      5                      6
                     E'                     E'                     A1'
 Frequencies --   1986.1822              1986.1822              1987.4297
 Red. masses --      1.0588                 1.0588                 1.0078
 Frc consts  --      2.4611                 2.4611                 2.3454
 IR Inten    --    292.5011               292.5011                 0.0000
 Raman Activ --     39.4015                39.4015               224.1760

 - Thermochemistry -
 -------------------
 Temperature   298.150 Kelvin.  Pressure   1.00000 Atm.
 Atom     1 has atomic number 13 and mass  26.98154

 Molecular mass:    30.00502 amu.
 Principal axes and moments of inertia in atomic units:
                           1         2         3
     Eigenvalues --    13.81147  13.81147  27.62294
           X           -0.07152   0.99744   0.00000
           Y            0.99744   0.07152   0.00000
           Z           -0.00000  -0.00000   1.00000
 This molecule is an oblate symmetric top.
 Rotational symmetry number  6.
 Rotational temperatures (Kelvin)      6.27116     6.27116     3.13558
 Rotational constants (GHZ):         130.66973   130.66973    65.33486
 Zero-point vibrational energy      49666.2 (Joules/Mol)
                                   11.87052 (Kcal/Mol)
 Vibrational temperatures:   1063.04  1154.55  1154.55  2857.67  2857.67
          (Kelvin)           2859.47

 Zero-point correction=                           0.018917 (Hartree/Particle)
 Thermal correction to Energy=                    0.022005
 Thermal correction to Enthalpy=                  0.022949
 Thermal correction to Gibbs Free Energy=        -0.000601
 Sum of electronic and zero-point Energies=           -242.265195
 Sum of electronic and thermal Energies=              -242.262108
 Sum of electronic and thermal Enthalpies=            -242.261163
 Sum of electronic and thermal Free Energies=         -242.284713

                     E (Thermal)             CV                S
                      KCal/Mol        Cal/Mol-Kelvin    Cal/Mol-Kelvin
 Total                   13.808              8.049             49.565
 Electronic               0.000              0.000              0.000
 Translational            0.889              2.981             36.130
 Rotational               0.889              2.981             12.757
 Vibrational             12.031              2.088              0.678

 Optimization completed.
    -- Stationary point found.
 Normal termination of Gaussian 16 at Sat Jun 14 16:06:50 2025.
