 Gaussian 16, Revision B.01,
 Gaussian 16:  EM64L-G16RevB.01 20-Dec-2017

 -------------------------------------
 # hf/3-21g pop=full geom=connectivity
 -------------------------------------

 -------
 sp calc
 -------
 Symbolic Z-matrix:
 Charge =  0 Multiplicity = 1

                         Standard orientation:
 ---------------------------------------------------------------------
 Center     Atomic      Atomic             Coordinates (Angstroms)
 Number     Number       Type             X           Y           Z
 ---------------------------------------------------------------------
      1         13           0       -0.000000   -0.000000    0.000000
      2          1           0        0.000000    1.599495    0.000000
      3          1           0        1.385203   -0.799748    0.000000
      4          1           0       -1.385203   -0.799748    0.000000
 ---------------------------------------------------------------------

 SCF Done:  E(RHF) =  -242.284112304     A.U. after    8 cycles

 The electronic state is 1-A'.
 Alpha  occ. eigenvalues --  -58.05997  -4.87207  -3.17567  -3.17432  -3.17432
 Alpha  occ. eigenvalues --   -0.57219  -0.42617  -0.42617
 Alpha virt. eigenvalues --    0.03080   0.17847   0.17847   0.19109   0.29286
 Alpha virt. eigenvalues --    0.37037   0.38917   0.38917   1.33732   1.37727
 Alpha virt. eigenvalues --    1.37727

 Mulliken charges:
               1
     1  Al   0.795343
     2  H   -0.265114
     3  H   -0.265114
     4  H   -0.265114
 Sum of Mulliken charges =   0.00000

 Dipole moment (field-independent basis, Debye):
    X=              0.0000    Y=             -0.0000    Z=              0.0000  Tot=              0.0000
 Quadrupole moment (field-independent basis, Debye-Ang):
   XX=            -19.4026   YY=            -19.4026   ZZ=            -11.5817
   XY=              0.0000   XZ=              0.0000   YZ=              0.0000

 Normal termination of Gaussian 16 at Sat Jun 14 16:08:17 2025.
