 Gaussian 16, Revision B.01,
 Gaussian 16:  EM64L-G16RevB.01 20-Dec-2017

 --------------------------------------
 # hf/3-21g* pop=full geom=connectivity
 --------------------------------------

 --
 sp
 --
 Symbolic Z-matrix:
 Charge =  0 Multiplicity = 1

                         Standard orientation:
 ---------------------------------------------------------------------
 Center     Atomic      Atomic             Coordinates (Angstroms)
 Number     Number       Type             X           Y           Z
 ---------------------------------------------------------------------
      1          6           0       -2.917413    0.398156   -0.000127
      2          6           0       -1.836866    1.273943   -0.000062
      3          6           0       -0.524107    0.779500    0.000050
      4          6           0       -0.302574   -0.609376    0.000083
      5          6           0       -1.399212   -1.480752    0.000029
      6          6           0       -2.698170   -0.981097   -0.000068
      7          1           0        0.392157    2.761270    0.000197
      8          1           0       -3.944472    0.791174   -0.000242
      9          1           0       -2.006604    2.360987   -0.000101
     10          6           0        0.610333    1.681851    0.000109
     11          6           0        1.070878   -1.181256    0.000206
     12          1           0       -1.227399   -2.567482    0.000063
     13          1           0       -3.552937   -1.673158   -0.000084
     14          6           0        2.192837   -0.195188   -0.000016
     15          6           0        1.874271    1.222648    0.000056
     16          1           0        2.729116    1.918501    0.000059
     17          6           0        3.465677   -0.621998   -0.000249
     18          1           0        4.316793    0.069901   -0.000414
     19          1           0        3.724083   -1.688038   -0.000299
     20          1           0        1.177663   -1.845642    0.904593
     21          1           0        1.177669   -1.846094   -0.903843
 ---------------------------------------------------------------------

 SCF Done:  E(RHF) =  -419.988972286     A.U. after   15 cycles

 The electronic state is 1-A.
 Alpha  occ. eigenvalues --  -11.19294 -11.19203 -11.18977 -11.18603 -11.18492
 Alpha  occ. eigenvalues --  -11.18421 -11.18394 -11.18336 -11.18162 -11.18117
 Alpha  occ. eigenvalues --  -11.16515  -1.17664  -1.11716  -1.05616  -1.03066
 Alpha  occ. eigenvalues --   -0.98996  -0.92476  -0.84526  -0.82034  -0.79412
 Alpha  occ. eigenvalues --   -0.70458  -0.69029  -0.67029  -0.62081  -0.61412
 Alpha  occ. eigenvalues --   -0.60195  -0.59607  -0.57063  -0.56116  -0.54074
 Alpha  occ. eigenvalues --   -0.50877  -0.50351  -0.47959  -0.46121  -0.44472
 Alpha  occ. eigenvalues --   -0.36741  -0.33198  -0.27393
 Alpha virt. eigenvalues --    0.08865   0.14097   0.17801   0.25817   0.27703
 Alpha virt. eigenvalues --    0.27736   0.28324   0.31297   0.32569   0.33936
 Alpha virt. eigenvalues --    0.34640   0.35368   0.35814   0.37544   0.42053

 Mulliken charges:
               1
     1  C   -0.237802
     2  C   -0.206452
     3  C   -0.096280
     4  C   -0.020935
     5  C   -0.222202
     6  C   -0.229194
     7  H    0.238366
     8  H    0.236228
     9  H    0.236559
    10  C   -0.192790
    11  C   -0.451152
    12  H    0.233277
    13  H    0.237028
    14  C   -0.057822
    15  C   -0.202049
    16  H    0.236173
    17  C   -0.398993
    18  H    0.205788
    19  H    0.203222
    20  H    0.244521
    21  H    0.244509
 Sum of Mulliken charges =  -0.00000

 Dipole moment (field-independent basis, Debye):
    X=             -0.1900    Y=             -0.2563    Z=              0.0002  Tot=              0.3190
 Quadrupole moment (field-independent basis, Debye-Ang):
   XX=            -59.7730   YY=            -57.3350   ZZ=            -73.2364
   XY=             -0.2556   XZ=              0.0003   YZ=             -0.0002

 Normal termination of Gaussian 16 at Thu Jun 12 22:17:36 2025.
