 Gaussian 16, Revision B.01,
 Gaussian 16:  EM64L-G16RevB.01 20-Dec-2017

 --------------------------------------
 # hf/3-21g* pop=full geom=connectivity
 --------------------------------------

 --------------------
 Methyl Napthalene sp
 --------------------
 Symbolic Z-matrix:
 Charge =  0 Multiplicity = 1

                         Standard orientation:
 ---------------------------------------------------------------------
 Center     Atomic      Atomic             Coordinates (Angstroms)
 Number     Number       Type             X           Y           Z
 ---------------------------------------------------------------------
      1          6           0       -2.697681   -1.038989   -0.000001
      2          6           0       -1.408837   -1.513142   -0.000004
      3          6           0       -0.308512   -0.612461   -0.000003
      4          6           0       -0.559618    0.783246    0.000001
      5          6           0       -1.903182    1.246567    0.000004
      6          6           0       -2.947643    0.354701    0.000002
      7          1           0        1.213930   -2.163379   -0.000010
      8          1           0       -3.550449   -1.733815   -0.000002
      9          1           0       -1.205076   -2.594335   -0.000006
     10          6           0        1.034578   -1.077472   -0.000006
     11          6           0        0.543203    1.681564    0.000002
     12          1           0       -2.086971    2.331346    0.000007
     13          1           0       -3.988553    0.710157    0.000004
     14          6           0        1.829668    1.207701   -0.000001
     15          6           0        2.088183   -0.191066   -0.000004
     16          1           0        0.340899    2.763219    0.000004
     17          1           0        2.684304    1.900719   -0.000001
     18          6           0        3.493823   -0.656393    0.000004
     19          1           0        4.027039   -0.273516   -0.905884
     20          1           0        4.026889   -0.273905    0.906147
     21          1           0        3.554107   -1.772027   -0.000229
 ---------------------------------------------------------------------

 SCF Done:  E(RHF) =  -420.029314327     A.U. after   14 cycles

 The electronic state is 1-A.
 Alpha  occ. eigenvalues --  -11.19097 -11.18986 -11.18947 -11.18586 -11.18447
 Alpha  occ. eigenvalues --  -11.18327 -11.18289 -11.18165 -11.18118 -11.17893
 Alpha  occ. eigenvalues --  -11.17380  -1.17829  -1.11857  -1.05162  -1.02817
 Alpha  occ. eigenvalues --   -0.98610  -0.93152  -0.84659  -0.81543  -0.81085
 Alpha  occ. eigenvalues --   -0.70012  -0.69375  -0.66814  -0.61877  -0.61307
 Alpha  occ. eigenvalues --   -0.59063  -0.57940  -0.57758  -0.55335  -0.53327
 Alpha  occ. eigenvalues --   -0.52837  -0.50952  -0.48007  -0.47072  -0.43969
 Alpha  occ. eigenvalues --   -0.38502  -0.31595  -0.28651
 Alpha virt. eigenvalues --    0.09941   0.13109   0.19566   0.25805   0.27404
 Alpha virt. eigenvalues --    0.27512   0.28309   0.30438   0.32355   0.34839
 Alpha virt. eigenvalues --    0.35492   0.36226   0.36267   0.38507   0.43302

 Mulliken charges:
               1
     1  C   -0.234752
     2  C   -0.198946
     3  C   -0.078563
     4  C   -0.098530
     5  C   -0.194272
     6  C   -0.239358
     7  H    0.231791
     8  H    0.237605
     9  H    0.236548
    10  C   -0.192617
    11  C   -0.186435
    12  H    0.237101
    13  H    0.236903
    14  C   -0.223737
    15  C   -0.065171
    16  H    0.237634
    17  H    0.235292
    18  C   -0.574476
    19  H    0.213802
    20  H    0.213809
    21  H    0.206373
 Sum of Mulliken charges =  -0.00000

 Dipole moment (field-independent basis, Debye):
    X=              0.3904    Y=              0.0351    Z=              0.0000  Tot=              0.3920
 Quadrupole moment (field-independent basis, Debye-Ang):
   XX=            -56.8590   YY=            -57.6419   ZZ=            -73.2986
   XY=              0.0513   XZ=              0.0001   YZ=              0.0000

 Normal termination of Gaussian 16 at Thu Jun 12 22:13:10 2025.
