 Gaussian 16, Revision B.01,
 Gaussian 16:  EM64L-G16RevB.01 20-Dec-2017

 ----------------------------------------------
 # opt freq hf/3-21g pop=full geom=connectivity
 ----------------------------------------------

 -------------------
 Title Card Required
 -------------------
 Symbolic Z-matrix:
 Charge =  0 Multiplicity = 1

 SCF Done:  E(RHF) =  -26.1961117322     A.U. after    8 cycles
 SCF Done:  E(RHF) =  -26.2244245897     A.U. after    8 cycles
 SCF Done:  E(RHF) =  -26.2366262491     A.U. after    8 cycles
 SCF Done:  E(RHF) =  -26.2373013756     A.U. after    7 cycles
 Optimization completed.
    -- Stationary point found.
 Normal termination of Gaussian 16 at Fri Jun 13 20:35:41 2025.

 --------------------------------------------------------------
 #N Geom=AllCheck Guess=TCheck SCRF=Check GenChk RHF/3-21G Freq
 --------------------------------------------------------------

 Structure from the checkpoint file:  "BH3_pyramid_opt.chk"
 -------------------
 Title Card Required
 -------------------
 Charge =  0 Multiplicity = 1

                         Standard orientation:
 ---------------------------------------------------------------------
 Center     Atomic      Atomic             Coordinates (Angstroms)
 Number     Number       Type             X           Y           Z
 ---------------------------------------------------------------------
      1          5           0        0.000000   -0.000000   -0.000216
      2          1           0        0.000000    1.188068    0.000360
      3          1           0        1.028897   -0.594034    0.000360
      4          1           0       -1.028897   -0.594034    0.000360
 ---------------------------------------------------------------------

 SCF Done:  E(RHF) =  -26.2373013756     A.U. after    1 cycles

 Unable to determine electronic state:  an orbital has unidentified symmetry.
 Alpha  occ. eigenvalues --   -7.57463  -0.70671  -0.49954  -0.49954
 Alpha virt. eigenvalues --    0.07708   0.32327   0.32327   0.34824   0.59852
 Alpha virt. eigenvalues --    0.59852   0.68505   0.77753   1.36683   1.42904
 Alpha virt. eigenvalues --    1.42904

 Mulliken charges:
               1
     1  B    0.129216
     2  H   -0.043072
     3  H   -0.043072
     4  H   -0.043072
 Sum of Mulliken charges =  -0.00000

 Dipole moment (field-independent basis, Debye):
    X=              0.0000    Y=             -0.0000    Z=             -0.0016  Tot=              0.0016
 Quadrupole moment (field-independent basis, Debye-Ang):
   XX=             -9.7032   YY=             -9.7032   ZZ=             -7.2192
   XY=             -0.0000   XZ=              0.0000   YZ=              0.0000

  Exact polarizability:  14.819   0.000  14.819  -0.000  -0.000   7.031
 Approx polarizability:  11.667   0.000  11.667  -0.000  -0.000   5.188

                      1                      2                      3
                     A1                     ?A                     ?A
 Frequencies --   1211.2899              1293.4928              1293.4929
 Red. masses --      1.2531                 1.1087                 1.1087
 Frc consts  --      1.0833                 1.0930                 1.0930
 IR Inten    --    145.7886                25.3630                25.3630
 Raman Activ --      0.0001                 6.7752                 6.7752

                      4                      5                      6
                     ?B                     ?A                     ?A
 Frequencies --   2680.2553              2804.3707              2804.3707
 Red. masses --      1.0078                 1.1257                 1.1257
 Frc consts  --      4.2657                 5.2161                 5.2161
 IR Inten    --      0.0000               145.5464               145.5463
 Raman Activ --    154.0630                30.3570                30.3570

 - Thermochemistry -
 -------------------
 Temperature   298.150 Kelvin.  Pressure   1.00000 Atm.
 Atom     1 has atomic number  5 and mass  11.00931

 Molecular mass:    14.03278 amu.
 Principal axes and moments of inertia in atomic units:
                           1         2         3
     Eigenvalues --     7.62003   7.62003  15.24006
           X            0.44567   0.89519   0.00000
           Y            0.89519  -0.44567   0.00000
           Z           -0.00000  -0.00000   1.00000
 This molecule is an oblate symmetric top.
 Rotational symmetry number  3.
 Rotational temperatures (Kelvin)     11.36661    11.36661     5.68330
 Rotational constants (GHZ):         236.84161   236.84161   118.42085
 Zero-point vibrational energy      72297.9 (Joules/Mol)
                                   17.27962 (Kcal/Mol)
 Vibrational temperatures:   1742.78  1861.05  1861.05  3856.29  4034.86
          (Kelvin)           4034.86

 Zero-point correction=                           0.027537 (Hartree/Particle)
 Thermal correction to Energy=                    0.030408
 Thermal correction to Enthalpy=                  0.031353
 Thermal correction to Gibbs Free Energy=         0.009344
 Sum of electronic and zero-point Energies=            -26.209765
 Sum of electronic and thermal Energies=               -26.206893
 Sum of electronic and thermal Enthalpies=             -26.205949
 Sum of electronic and thermal Free Energies=          -26.227958

                     E (Thermal)             CV                S
                      KCal/Mol        Cal/Mol-Kelvin    Cal/Mol-Kelvin
 Total                   19.082              6.464             46.322
 Electronic               0.000              0.000              0.000
 Translational            0.889              2.981             33.864
 Rotational               0.889              2.981             12.362
 Vibrational             17.304              0.502              0.096

 Optimization completed.
    -- Stationary point found.
 Normal termination of Gaussian 16 at Fri Jun 13 20:35:42 2025.
