 Gaussian 16, Revision B.01,
 Gaussian 16:  EM64L-G16RevB.01 20-Dec-2017

 -------------------------------------
 # hf/3-21g pop=full geom=connectivity
 -------------------------------------

 -------------------
 Title Card Required
 -------------------
 Symbolic Z-matrix:
 Charge =  0 Multiplicity = 1

                         Standard orientation:
 ---------------------------------------------------------------------
 Center     Atomic      Atomic             Coordinates (Angstroms)
 Number     Number       Type             X           Y           Z
 ---------------------------------------------------------------------
      1         13           0       -0.000103   -0.000053    0.319784
      2         17           0        1.311349   -1.714380   -0.081512
      3         17           0       -2.140526   -0.278288   -0.081524
      4         17           0        0.829257    1.992708   -0.081505
 ---------------------------------------------------------------------

 SCF Done:  E(RHF) =  -1612.68634591     A.U. after   10 cycles

 The electronic state is 1-A.
 Alpha  occ. eigenvalues -- -104.13386-104.13378-104.13377 -58.24753 -10.52556
 Alpha  occ. eigenvalues --  -10.52530 -10.52529  -7.98829  -7.98828  -7.98817
 Alpha  occ. eigenvalues --   -7.98528  -7.98512  -7.98512  -7.98494  -7.98490
 Alpha  occ. eigenvalues --   -7.98489  -5.04545  -3.34973  -3.34973  -3.34945
 Alpha  occ. eigenvalues --   -1.12536  -1.10679  -1.10677  -0.62220  -0.54239
 Alpha  occ. eigenvalues --   -0.54238  -0.51627  -0.49188  -0.49188  -0.48853
 Alpha  occ. eigenvalues --   -0.48852  -0.47947
 Alpha virt. eigenvalues --   -0.04191   0.07490   0.13121   0.13124   0.23157
 Alpha virt. eigenvalues --    0.28956   0.32643   0.32645   0.72568   0.72569
 Alpha virt. eigenvalues --    0.75802   0.77120   0.77123   0.84971   0.85372

 Mulliken charges:
               1
     1  Al   1.386241
     2  Cl  -0.462080
     3  Cl  -0.462069
     4  Cl  -0.462092
 Sum of Mulliken charges =  -0.00000

 Dipole moment (field-independent basis, Debye):
    X=             -0.0010    Y=             -0.0006    Z=              2.6785  Tot=              2.6785
 Quadrupole moment (field-independent basis, Debye-Ang):
   XX=            -62.2586   YY=            -62.2564   ZZ=            -46.8232
   XY=             -0.0001   XZ=             -0.0004   YZ=             -0.0002

 Normal termination of Gaussian 16 at Tue Jun 17 15:18:12 2025.
