 Gaussian 16, Revision B.01,
 Gaussian 16:  EM64L-G16RevB.01 20-Dec-2017

 -------------------------------------
 # hf/3-21g pop=full geom=connectivity
 -------------------------------------

 -------------------
 Title Card Required
 -------------------
 Symbolic Z-matrix:
 Charge =  0 Multiplicity = 1

                         Standard orientation:
 ---------------------------------------------------------------------
 Center     Atomic      Atomic             Coordinates (Angstroms)
 Number     Number       Type             X           Y           Z
 ---------------------------------------------------------------------
      1         13           0        0.330273    0.001428    0.000544
      2         17           0        0.740577   -1.300255   -1.719087
      3         17           0        0.722818    2.144846   -0.266929
      4         17           0        0.731306   -0.835478    1.990200
      5         15           0       -2.211347   -0.009224   -0.004186
      6          1           0       -2.815870    0.752329    1.005643
      7          1           0       -2.806283   -1.269039    0.151269
      8          1           0       -2.811103    0.481582   -1.172316
 ---------------------------------------------------------------------

 SCF Done:  E(RHF) =  -1953.44405786     A.U. after   10 cycles

 The electronic state is 1-A.
 Alpha  occ. eigenvalues -- -104.10043-104.10018-104.10018 -79.48657 -58.20259
 Alpha  occ. eigenvalues --  -10.49211 -10.49131 -10.49130  -7.95447  -7.95446
 Alpha  occ. eigenvalues --   -7.95439  -7.95169  -7.95143  -7.95143  -7.95134
 Alpha  occ. eigenvalues --   -7.95134  -7.95130  -7.56383  -5.44884  -5.44884
 Alpha  occ. eigenvalues --   -5.44779  -4.99985  -3.30490  -3.30490  -3.30412
 Alpha  occ. eigenvalues --   -1.09590  -1.07685  -1.07684  -0.97527  -0.63089
 Alpha  occ. eigenvalues --   -0.63085  -0.61825  -0.52781  -0.51481  -0.51480
 Alpha  occ. eigenvalues --   -0.46764  -0.46763  -0.46017  -0.46016  -0.45180
 Alpha  occ. eigenvalues --   -0.45020
 Alpha virt. eigenvalues --    0.08939   0.09432   0.09433   0.12072   0.18515
 Alpha virt. eigenvalues --    0.18929   0.18931   0.29647   0.33498   0.35788
 Alpha virt. eigenvalues --    0.35790   0.53536   0.54323   0.54324   0.74461

 Mulliken charges:
               1
     1  Al   1.429235
     2  Cl  -0.523281
     3  Cl  -0.523295
     4  Cl  -0.523305
     5  P   -0.037570
     6  H    0.059409
     7  H    0.059411
     8  H    0.059396
 Sum of Mulliken charges =  -0.00000

 Dipole moment (field-independent basis, Debye):
    X=             -7.4771    Y=             -0.0306    Z=             -0.0147  Tot=              7.4772
 Quadrupole moment (field-independent basis, Debye-Ang):
   XX=            -55.3578   YY=            -79.1539   ZZ=            -79.1505
   XY=              0.1019   XZ=              0.0456   YZ=              0.0003

 Normal termination of Gaussian 16 at Tue Jun 17 15:12:39 2025.
