 Gaussian 16, Revision B.01,
 Gaussian 16:  EM64L-G16RevB.01 20-Dec-2017

 ----------------------------------------------
 # opt freq hf/3-21g pop=full geom=connectivity
 ----------------------------------------------

 -------------------
 Title Card Required
 -------------------
 Symbolic Z-matrix:
 Charge =  0 Multiplicity = 1

 SCF Done:  E(RHF) =  -1953.31842087     A.U. after   12 cycles
 SCF Done:  E(RHF) =  -1953.35943970     A.U. after   12 cycles
 SCF Done:  E(RHF) =  -1953.38239049     A.U. after   12 cycles
 SCF Done:  E(RHF) =  -1953.40110210     A.U. after   11 cycles
 SCF Done:  E(RHF) =  -1953.40897689     A.U. after   10 cycles
 SCF Done:  E(RHF) =  -1953.41320263     A.U. after   10 cycles
 SCF Done:  E(RHF) =  -1953.41966758     A.U. after   11 cycles
 SCF Done:  E(RHF) =  -1953.42163935     A.U. after   11 cycles
 SCF Done:  E(RHF) =  -1953.42460394     A.U. after   10 cycles
 SCF Done:  E(RHF) =  -1953.43028701     A.U. after   11 cycles
 SCF Done:  E(RHF) =  -1953.44021919     A.U. after   11 cycles
 SCF Done:  E(RHF) =  -1953.44247127     A.U. after    9 cycles
 SCF Done:  E(RHF) =  -1953.44362436     A.U. after    9 cycles
 SCF Done:  E(RHF) =  -1953.44387298     A.U. after    9 cycles
 SCF Done:  E(RHF) =  -1953.44400580     A.U. after    9 cycles
 SCF Done:  E(RHF) =  -1953.44405298     A.U. after    9 cycles
 SCF Done:  E(RHF) =  -1953.44405736     A.U. after    8 cycles
 SCF Done:  E(RHF) =  -1953.44405780     A.U. after    7 cycles
 SCF Done:  E(RHF) =  -1953.44405786     A.U. after    6 cycles
 Optimization completed.
    -- Stationary point found.
 Normal termination of Gaussian 16 at Tue Jun 17 15:11:50 2025.

 --------------------------------------------------------------
 #N Geom=AllCheck Guess=TCheck SCRF=Check GenChk RHF/3-21G Freq
 --------------------------------------------------------------

 Structure from the checkpoint file:  "PH3_AlCl3_adduct_opt.chk"
 -------------------
 Title Card Required
 -------------------
 Charge =  0 Multiplicity = 1

                         Standard orientation:
 ---------------------------------------------------------------------
 Center     Atomic      Atomic             Coordinates (Angstroms)
 Number     Number       Type             X           Y           Z
 ---------------------------------------------------------------------
      1         13           0        0.330273   -0.001427   -0.000545
      2         17           0        0.740577    1.299868    1.719380
      3         17           0        0.722821   -2.144905    0.266444
      4         17           0        0.731303    0.835928   -1.990012
      5         15           0       -2.211347    0.009220    0.004190
      6          1           0       -2.815870   -0.752106   -1.005811
      7          1           0       -2.806285    1.269070   -0.150981
      8          1           0       -2.811101   -0.481850    1.172209
 ---------------------------------------------------------------------

 SCF Done:  E(RHF) =  -1953.44405786     A.U. after    1 cycles

 The electronic state is 1-A.
 Alpha  occ. eigenvalues -- -104.10043-104.10018-104.10018 -79.48657 -58.20259
 Alpha  occ. eigenvalues --  -10.49211 -10.49131 -10.49130  -7.95447  -7.95446
 Alpha  occ. eigenvalues --   -7.95439  -7.95169  -7.95143  -7.95143  -7.95134
 Alpha  occ. eigenvalues --   -7.95134  -7.95130  -7.56383  -5.44884  -5.44884
 Alpha  occ. eigenvalues --   -5.44779  -4.99985  -3.30490  -3.30490  -3.30412
 Alpha  occ. eigenvalues --   -1.09590  -1.07685  -1.07684  -0.97527  -0.63089
 Alpha  occ. eigenvalues --   -0.63085  -0.61825  -0.52781  -0.51481  -0.51480
 Alpha  occ. eigenvalues --   -0.46764  -0.46763  -0.46017  -0.46016  -0.45180
 Alpha  occ. eigenvalues --   -0.45020
 Alpha virt. eigenvalues --    0.08939   0.09432   0.09433   0.12072   0.18515
 Alpha virt. eigenvalues --    0.18929   0.18931   0.29647   0.33498   0.35788
 Alpha virt. eigenvalues --    0.35790   0.53536   0.54323   0.54324   0.74461

 Mulliken charges:
               1
     1  Al   1.429235
     2  Cl  -0.523281
     3  Cl  -0.523295
     4  Cl  -0.523305
     5  P   -0.037570
     6  H    0.059409
     7  H    0.059411
     8  H    0.059396
 Sum of Mulliken charges =  -0.00000

 Dipole moment (field-independent basis, Debye):
    X=             -7.4771    Y=              0.0306    Z=              0.0147  Tot=              7.4772
 Quadrupole moment (field-independent basis, Debye-Ang):
   XX=            -55.3578   YY=            -79.1539   ZZ=            -79.1505
   XY=             -0.1019   XZ=             -0.0457   YZ=              0.0003

  Exact polarizability:  53.290   0.045  63.526   0.020  -0.000  63.520
 Approx polarizability:  38.803   0.064  53.761   0.029  -0.000  53.757

                      1                      2                      3
                      A                      A                      A
 Frequencies --     85.2153                85.2278               114.5395
 Red. masses --      7.2022                 7.2026                 1.0176
 Frc consts  --      0.0308                 0.0308                 0.0079
 IR Inten    --      1.5439                 1.5443                 0.0001
 Raman Activ --      0.8031                 0.8029                 0.0000

                      4                      5                      6
                      A                      A                      A
 Frequencies --    137.8509               137.8691               162.2359
 Red. masses --     20.1474                20.1558                13.5786
 Frc consts  --      0.2256                 0.2257                 0.2106
 IR Inten    --     11.4972                11.4950                41.9808
 Raman Activ --      3.3620                 3.3636                 2.3427

                      7                      8                      9
                      A                      A                      A
 Frequencies --    294.0958               380.2211               446.6531
 Red. masses --     13.8202                27.7626                 1.2552
 Frc consts  --      0.7043                 2.3647                 0.1475
 IR Inten    --     76.7835                94.2627                 0.7645
 Raman Activ --      4.7676                 5.7903                11.9352

                     10                     11                     12
                      A                      A                      A
 Frequencies --    446.6778               573.1724               573.2237
 Red. masses --      1.2552                12.0096                12.0193
 Frc consts  --      0.1476                 2.3246                 2.3269
 IR Inten    --      0.7685               159.1878               159.2055
 Raman Activ --     11.9386                 0.5738                 0.5736

                     13                     14                     15
                      A                      A                      A
 Frequencies --   1010.5925              1206.0020              1206.0930
 Red. masses --      1.1077                 1.0277                 1.0277
 Frc consts  --      0.6665                 0.8807                 0.8808
 IR Inten    --     32.0834                 7.4960                 7.4883
 Raman Activ --     11.8400                44.3677                44.3801

                     16                     17                     18
                      A                      A                      A
 Frequencies --   2525.1062              2539.4671              2539.6681
 Red. masses --      1.0225                 1.0441                 1.0441
 Frc consts  --      3.8414                 3.9670                 3.9677
 IR Inten    --      1.9942                 1.1271                 1.1224
 Raman Activ --    225.2325               142.6398               142.6124

 - Thermochemistry -
 -------------------
 Temperature   298.150 Kelvin.  Pressure   1.00000 Atm.
 Atom     1 has atomic number 13 and mass  26.98154

 Molecular mass:   165.88534 amu.
 Principal axes and moments of inertia in atomic units:
                           1         2         3
     Eigenvalues --  1716.844601717.059191762.67505
           X            0.00724   0.00317   0.99997
           Y            0.99997  -0.00421  -0.00723
           Z            0.00419   0.99999  -0.00320
 This molecule is an asymmetric top.
 Rotational symmetry number  1.
 Warning -- assumption of classical behavior for rotation
           may cause significant error
 Rotational temperatures (Kelvin)      0.05045     0.05044     0.04914
 Rotational constants (GHZ):           1.05120     1.05107     1.02386
 Zero-point vibrational energy      86513.4 (Joules/Mol)
                                   20.67720 (Kcal/Mol)
 Warning -- explicit consideration of  12 degrees of freedom as
           vibrations may cause significant error
 Vibrational temperatures:    122.61   122.62   164.80   198.34   198.36
          (Kelvin)            233.42   423.14   547.05   642.63   642.67
                              824.67   824.74  1454.02  1735.17  1735.30
                             3633.06  3653.73  3654.02

 Zero-point correction=                           0.032951 (Hartree/Particle)
 Thermal correction to Energy=                    0.041678
 Thermal correction to Enthalpy=                  0.042622
 Thermal correction to Gibbs Free Energy=        -0.002724
 Sum of electronic and zero-point Energies=          -1953.411107
 Sum of electronic and thermal Energies=             -1953.402380
 Sum of electronic and thermal Enthalpies=           -1953.401436
 Sum of electronic and thermal Free Energies=        -1953.446782

                     E (Thermal)             CV                S
                      KCal/Mol        Cal/Mol-Kelvin    Cal/Mol-Kelvin
 Total                   26.153             26.422             95.439
 Electronic               0.000              0.000              0.000
 Translational            0.889              2.981             41.227
 Rotational               0.889              2.981             30.031
 Vibrational             24.376             20.460             24.182
 Vibration     1          0.601              1.959              3.767
 Vibration     2          0.601              1.959              3.767
 Vibration     3          0.607              1.937              3.190
 Vibration     4          0.614              1.916              2.833
 Vibration     5          0.614              1.915              2.833
 Vibration     6          0.622              1.889              2.524
 Vibration     7          0.689              1.685              1.450
 Vibration     8          0.750              1.512              1.038
 Vibration     9          0.806              1.368              0.806
 Vibration    10          0.806              1.368              0.806
 Vibration    11          0.929              1.089              0.498
 Vibration    12          0.929              1.089              0.498

 Optimization completed.
    -- Stationary point found.
 Normal termination of Gaussian 16 at Tue Jun 17 15:11:52 2025.
