 Gaussian 16, Revision B.01,
 Gaussian 16:  EM64L-G16RevB.01 20-Dec-2017

 -------------------------------------
 # hf/3-21g pop=full geom=connectivity
 -------------------------------------

 -------------------
 Title Card Required
 -------------------
 Symbolic Z-matrix:
 Charge =  0 Multiplicity = 1

                         Standard orientation:
 ---------------------------------------------------------------------
 Center     Atomic      Atomic             Coordinates (Angstroms)
 Number     Number       Type             X           Y           Z
 ---------------------------------------------------------------------
      1         15           0        0.000021   -0.000014   -0.099957
      2          1           0       -0.789305   -0.991200    0.499775
      3          1           0       -0.464058    1.179097    0.499691
      4          1           0        1.253049   -0.187694    0.499894
 ---------------------------------------------------------------------

 SCF Done:  E(RHF) =  -340.700440560     A.U. after    9 cycles

 The electronic state is 1-A.
 Alpha  occ. eigenvalues --  -79.37880  -7.45518  -5.34024  -5.34024  -5.33665
 Alpha  occ. eigenvalues --   -0.87536  -0.54277  -0.54273  -0.36003
 Alpha virt. eigenvalues --    0.19477   0.19480   0.24825   0.59834   0.59835
 Alpha virt. eigenvalues --    0.61890   0.66667   1.19832   1.27428   1.27431

 Mulliken charges:
               1
     1  P    0.095267
     2  H   -0.031757
     3  H   -0.031755
     4  H   -0.031755
 Sum of Mulliken charges =   0.00000

 Dipole moment (field-independent basis, Debye):
    X=             -0.0000    Y=              0.0000    Z=              1.4506  Tot=              1.4506
 Quadrupole moment (field-independent basis, Debye-Ang):
   XX=            -15.0260   YY=            -15.0264   ZZ=            -18.3818
   XY=              0.0000   XZ=              0.0003   YZ=             -0.0002

 Normal termination of Gaussian 16 at Tue Jun 17 15:17:07 2025.
