 Gaussian 16, Revision B.01,
 Gaussian 16:  EM64L-G16RevB.01 20-Dec-2017

 ----------------------------------------------
 # opt freq hf/3-21g pop=full geom=connectivity
 ----------------------------------------------

 -------------------
 Title Card Required
 -------------------
 Symbolic Z-matrix:
 Charge =  0 Multiplicity = 1

 SCF Done:  E(RHF) =  -350.582032250     A.U. after   11 cycles
 SCF Done:  E(RHF) =  -350.627183438     A.U. after   12 cycles
 SCF Done:  E(RHF) =  -350.632639207     A.U. after   10 cycles
 SCF Done:  E(RHF) =  -350.632714001     A.U. after   10 cycles
 SCF Done:  E(RHF) =  -350.632743660     A.U. after    9 cycles
 Optimization completed.
    -- Stationary point found.
 Normal termination of Gaussian 16 at Fri Jun 13 19:12:18 2025.

 --------------------------------------------------------------
 #N Geom=AllCheck Guess=TCheck SCRF=Check GenChk RHF/3-21G Freq
 --------------------------------------------------------------

 Structure from the checkpoint file:  "nf3_opt.chk"
 -------------------
 Title Card Required
 -------------------
 Charge =  0 Multiplicity = 1

                         Standard orientation:
 ---------------------------------------------------------------------
 Center     Atomic      Atomic             Coordinates (Angstroms)
 Number     Number       Type             X           Y           Z
 ---------------------------------------------------------------------
      1          7           0        0.000000    0.000000    0.496494
      2          9           0        0.000000    1.254975   -0.128721
      3          9           0       -1.086841   -0.627488   -0.128721
      4          9           0        1.086841   -0.627488   -0.128721
 ---------------------------------------------------------------------

 SCF Done:  E(RHF) =  -350.632743660     A.U. after    1 cycles

 The electronic state is 1-A1.
 Alpha  occ. eigenvalues --  -26.26182 -26.26090 -26.26090 -15.83748  -1.76983
 Alpha  occ. eigenvalues --   -1.63766  -1.63766  -1.10399  -0.81964  -0.81756
 Alpha  occ. eigenvalues --   -0.81756  -0.71881  -0.71881  -0.67314  -0.65925
 Alpha  occ. eigenvalues --   -0.65925  -0.55158
 Alpha virt. eigenvalues --    0.22133   0.22133   0.22325   1.27242   1.27242
 Alpha virt. eigenvalues --    1.28126   2.05591   2.06030   2.06030   2.30852
 Alpha virt. eigenvalues --    2.31514   2.31765   2.31765   2.37471   2.44553

 Mulliken charges:
               1
     1  N    0.653066
     2  F   -0.217689
     3  F   -0.217689
     4  F   -0.217689
 Sum of Mulliken charges =  -0.00000

 Dipole moment (field-independent basis, Debye):
    X=              0.0000    Y=             -0.0000    Z=              0.4384  Tot=              0.4384
 Quadrupole moment (field-independent basis, Debye-Ang):
   XX=            -20.3880   YY=            -20.3880   ZZ=            -19.5563
   XY=              0.0000   XZ=             -0.0000   YZ=              0.0000

  Exact polarizability:  13.391  -0.000  13.391   0.000   0.000   4.927
 Approx polarizability:  10.928  -0.000  10.928   0.000   0.000   4.614

                      1                      2                      3
                      E                      E                     A1
 Frequencies --    483.1157               483.1158               627.6713
 Red. masses --     18.4956                18.4956                17.7382
 Frc consts  --      2.5434                 2.5434                 4.1174
 IR Inten    --      2.7242                 2.7242                15.8730
 Raman Activ --      2.4887                 2.4887                 3.6547

                      4                      5                      6
                     A1                      E                      E
 Frequencies --   1085.3628              1134.8948              1134.8948
 Red. masses --     15.6323                15.4001                15.4001
 Frc consts  --     10.8499                11.6865                11.6865
 IR Inten    --     35.7585               101.7857               101.7857
 Raman Activ --     22.2135                11.3755                11.3755

 - Thermochemistry -
 -------------------
 Temperature   298.150 Kelvin.  Pressure   1.00000 Atm.
 Atom     1 has atomic number  7 and mass  14.00307

 Molecular mass:    70.99828 amu.
 Principal axes and moments of inertia in atomic units:
                           1         2         3
     Eigenvalues --   175.97067 175.97067 320.55791
           X           -0.40082   0.91616   0.00000
           Y            0.91616   0.40082   0.00000
           Z            0.00000   0.00000   1.00000
 This molecule is an oblate symmetric top.
 Rotational symmetry number  3.
 Rotational temperatures (Kelvin)      0.49221     0.49221     0.27020
 Rotational constants (GHZ):          10.25592    10.25592     5.63000
 Zero-point vibrational energy      29601.9 (Joules/Mol)
                                    7.07503 (Kcal/Mol)
 Warning -- explicit consideration of   2 degrees of freedom as
           vibrations may cause significant error
 Vibrational temperatures:    695.10   695.10   903.08  1561.59  1632.86
          (Kelvin)           1632.86

 Zero-point correction=                           0.011275 (Hartree/Particle)
 Thermal correction to Energy=                    0.014796
 Thermal correction to Enthalpy=                  0.015741
 Thermal correction to Gibbs Free Energy=        -0.013863
 Sum of electronic and zero-point Energies=           -350.621469
 Sum of electronic and thermal Energies=              -350.617947
 Sum of electronic and thermal Enthalpies=            -350.617003
 Sum of electronic and thermal Free Energies=         -350.646607

                     E (Thermal)             CV                S
                      KCal/Mol        Cal/Mol-Kelvin    Cal/Mol-Kelvin
 Total                    9.285             10.306             62.307
 Electronic               0.000              0.000              0.000
 Translational            0.889              2.981             38.697
 Rotational               0.889              2.981             21.627
 Vibrational              7.507              4.344              1.982
 Vibration     1          0.839              1.287              0.702
 Vibration     2          0.839              1.287              0.702

 Optimization completed.
    -- Stationary point found.
 Normal termination of Gaussian 16 at Fri Jun 13 19:12:19 2025.
