 Gaussian 16, Revision B.01,
 Gaussian 16:  EM64L-G16RevB.01 20-Dec-2017

 -------------------------------------
 # hf/3-21g pop=full geom=connectivity
 -------------------------------------

 -------------------
 Title Card Required
 -------------------
 Symbolic Z-matrix:
 Charge =  0 Multiplicity = 1

                         Standard orientation:
 ---------------------------------------------------------------------
 Center     Atomic      Atomic             Coordinates (Angstroms)
 Number     Number       Type             X           Y           Z
 ---------------------------------------------------------------------
      1          7           0       -0.000000    0.000000    0.496494
      2          9           0        0.000000    1.254975   -0.128721
      3          9           0       -1.086840   -0.627488   -0.128721
      4          9           0        1.086840   -0.627488   -0.128721
 ---------------------------------------------------------------------

 SCF Done:  E(RHF) =  -350.632743660     A.U. after   12 cycles

 The electronic state is 1-A1.
 Alpha  occ. eigenvalues --  -26.26182 -26.26090 -26.26090 -15.83748  -1.76983
 Alpha  occ. eigenvalues --   -1.63766  -1.63766  -1.10399  -0.81964  -0.81756
 Alpha  occ. eigenvalues --   -0.81756  -0.71881  -0.71881  -0.67314  -0.65925
 Alpha  occ. eigenvalues --   -0.65925  -0.55158
 Alpha virt. eigenvalues --    0.22133   0.22133   0.22325   1.27242   1.27242
 Alpha virt. eigenvalues --    1.28126   2.05591   2.06030   2.06030   2.30852
 Alpha virt. eigenvalues --    2.31514   2.31765   2.31765   2.37471   2.44553

 Mulliken charges:
               1
     1  N    0.653066
     2  F   -0.217689
     3  F   -0.217689
     4  F   -0.217689
 Sum of Mulliken charges =   0.00000

 Dipole moment (field-independent basis, Debye):
    X=              0.0000    Y=             -0.0000    Z=              0.4384  Tot=              0.4384
 Quadrupole moment (field-independent basis, Debye-Ang):
   XX=            -20.3880   YY=            -20.3880   ZZ=            -19.5563
   XY=              0.0000   XZ=              0.0000   YZ=              0.0000

 Normal termination of Gaussian 16 at Fri Jun 13 19:19:35 2025.
