 Gaussian 16, Revision B.01,
 Gaussian 16:  EM64L-G16RevB.01 20-Dec-2017

 -------------------------------------
 # hf/3-21g pop=full geom=connectivity
 -------------------------------------

 -------------------
 Title Card Required
 -------------------
 Symbolic Z-matrix:
 Charge =  1 Multiplicity = 1

                         Standard orientation:
 ---------------------------------------------------------------------
 Center     Atomic      Atomic             Coordinates (Angstroms)
 Number     Number       Type             X           Y           Z
 ---------------------------------------------------------------------
      1          7           0       -0.000000    0.000000    0.339708
      2          1           0       -0.000000    0.000000    1.368997
      3          9           0        0.000000    1.288451   -0.138776
      4          9           0        1.115832   -0.644226   -0.138776
      5          9           0       -1.115832   -0.644226   -0.138776
 ---------------------------------------------------------------------

 SCF Done:  E(RHF) =  -350.835438734     A.U. after   12 cycles

 The electronic state is 1-A1.
 Alpha  occ. eigenvalues --  -26.60578 -26.60502 -26.60502 -16.20789  -2.10726
 Alpha  occ. eigenvalues --   -1.97101  -1.97101  -1.49928  -1.22610  -1.15635
 Alpha  occ. eigenvalues --   -1.15635  -1.03411  -1.03411  -0.99498  -0.98041
 Alpha  occ. eigenvalues --   -0.98041  -0.96805
 Alpha virt. eigenvalues --   -0.11506  -0.09395  -0.09395  -0.05789   0.79988
 Alpha virt. eigenvalues --    0.89844   0.89844   1.04920   1.77430   1.77430
 Alpha virt. eigenvalues --    1.98601   2.00929   2.00929   2.01572   2.05486

 Mulliken charges:
               1
     1  N    0.536177
     2  H    0.565131
     3  F   -0.033769
     4  F   -0.033769
     5  F   -0.033769
 Sum of Mulliken charges =   1.00000

 Dipole moment (field-independent basis, Debye):
    X=              0.0000    Y=              0.0000    Z=              3.4453  Tot=              3.4453
 Quadrupole moment (field-independent basis, Debye-Ang):
   XX=            -17.8499   YY=            -17.8499   ZZ=            -13.8580
   XY=             -0.0000   XZ=             -0.0000   YZ=             -0.0000

 Normal termination of Gaussian 16 at Fri Jun 13 19:46:22 2025.
