 Gaussian 16, Revision B.01,
 Gaussian 16:  EM64L-G16RevB.01 20-Dec-2017

 ----------------------------------------------
 # opt freq hf/3-21g pop=full geom=connectivity
 ----------------------------------------------

 -------------------
 Title Card Required
 -------------------
 Symbolic Z-matrix:
 Charge =  1 Multiplicity = 1

 SCF Done:  E(RHF) =  -350.809515791     A.U. after   11 cycles
 SCF Done:  E(RHF) =  -350.833930331     A.U. after   12 cycles
 SCF Done:  E(RHF) =  -350.835418010     A.U. after   10 cycles
 SCF Done:  E(RHF) =  -350.835438734     A.U. after    9 cycles
 Optimization completed.
    -- Stationary point found.
 Normal termination of Gaussian 16 at Fri Jun 13 19:45:22 2025.

 --------------------------------------------------------------
 #N Geom=AllCheck Guess=TCheck SCRF=Check GenChk RHF/3-21G Freq
 --------------------------------------------------------------

 Structure from the checkpoint file:  "nf3H_ion.chk"
 -------------------
 Title Card Required
 -------------------
 Charge =  1 Multiplicity = 1

                         Standard orientation:
 ---------------------------------------------------------------------
 Center     Atomic      Atomic             Coordinates (Angstroms)
 Number     Number       Type             X           Y           Z
 ---------------------------------------------------------------------
      1          7           0        0.000000   -0.000000    0.339708
      2          1           0        0.000000   -0.000000    1.368997
      3          9           0        0.000000    1.288451   -0.138776
      4          9           0        1.115832   -0.644226   -0.138776
      5          9           0       -1.115832   -0.644226   -0.138776
 ---------------------------------------------------------------------

 SCF Done:  E(RHF) =  -350.835438734     A.U. after    1 cycles

 The electronic state is 1-A1.
 Alpha  occ. eigenvalues --  -26.60578 -26.60502 -26.60502 -16.20789  -2.10726
 Alpha  occ. eigenvalues --   -1.97101  -1.97101  -1.49928  -1.22610  -1.15635
 Alpha  occ. eigenvalues --   -1.15635  -1.03411  -1.03411  -0.99498  -0.98041
 Alpha  occ. eigenvalues --   -0.98041  -0.96805
 Alpha virt. eigenvalues --   -0.11506  -0.09395  -0.09395  -0.05789   0.79988
 Alpha virt. eigenvalues --    0.89844   0.89844   1.04920   1.77430   1.77430
 Alpha virt. eigenvalues --    1.98601   2.00929   2.00929   2.01572   2.05486

 Mulliken charges:
               1
     1  N    0.536176
     2  H    0.565131
     3  F   -0.033769
     4  F   -0.033769
     5  F   -0.033769
 Sum of Mulliken charges =   1.00000

 Dipole moment (field-independent basis, Debye):
    X=             -0.0000    Y=              0.0000    Z=              3.4453  Tot=              3.4453
 Quadrupole moment (field-independent basis, Debye-Ang):
   XX=            -17.8499   YY=            -17.8499   ZZ=            -13.8580
   XY=             -0.0000   XZ=              0.0000   YZ=             -0.0000

  Exact polarizability:  13.081  -0.000  13.081   0.000   0.000   7.078
 Approx polarizability:  11.198  -0.000  11.198   0.000  -0.000   5.778

                      1                      2                      3
                      E                      E                     A1
 Frequencies --    450.1700               450.1700               589.5970
 Red. masses --     15.6262                15.6262                13.2543
 Frc consts  --      1.8658                 1.8658                 2.7147
 IR Inten    --     14.2498                14.2498                33.4059
 Raman Activ --      3.1920                 3.1920                 4.0972

                      4                      5                      6
                     A1                      E                      E
 Frequencies --   1012.0852              1182.6132              1182.6132
 Red. masses --      9.6473                 5.5083                 5.5083
 Frc consts  --      5.8222                 4.5390                 4.5390
 IR Inten    --     35.8384                38.4788                38.4788
 Raman Activ --     13.8879                 9.5859                 9.5859

                      7                      8                      9
                      E                      E                     A1
 Frequencies --   1495.8760              1495.8761              3397.5634
 Red. masses --      1.2228                 1.2228                 1.0865
 Frc consts  --      1.6121                 1.6121                 7.3896
 IR Inten    --     12.7883                12.7883               300.4815
 Raman Activ --      2.6700                 2.6700                29.4677

 - Thermochemistry -
 -------------------
 Temperature   298.150 Kelvin.  Pressure   1.00000 Atm.
 Atom     1 has atomic number  7 and mass  14.00307

 Molecular mass:    72.00611 amu.
 Principal axes and moments of inertia in atomic units:
                           1         2         3
     Eigenvalues --   185.22355 185.22355 337.88756
           X            0.96295   0.26970   0.00000
           Y           -0.26970   0.96295   0.00000
           Z            0.00000  -0.00000   1.00000
 This molecule is an oblate symmetric top.
 Rotational symmetry number  3.
 Rotational temperatures (Kelvin)      0.46762     0.46762     0.25634
 Rotational constants (GHZ):           9.74358     9.74358     5.34125
 Zero-point vibrational energy      67329.2 (Joules/Mol)
                                   16.09207 (Kcal/Mol)
 Warning -- explicit consideration of   3 degrees of freedom as
           vibrations may cause significant error
 Vibrational temperatures:    647.69   647.69   848.30  1456.16  1701.52
          (Kelvin)           1701.52  2152.23  2152.23  4888.34

 Zero-point correction=                           0.025644 (Hartree/Particle)
 Thermal correction to Energy=                    0.029251
 Thermal correction to Enthalpy=                  0.030195
 Thermal correction to Gibbs Free Energy=         0.000366
 Sum of electronic and zero-point Energies=           -350.809794
 Sum of electronic and thermal Energies=              -350.806188
 Sum of electronic and thermal Enthalpies=            -350.805243
 Sum of electronic and thermal Free Energies=         -350.835073

                     E (Thermal)             CV                S
                      KCal/Mol        Cal/Mol-Kelvin    Cal/Mol-Kelvin
 Total                   18.355             10.686             62.781
 Electronic               0.000              0.000              0.000
 Translational            0.889              2.981             38.739
 Rotational               0.889              2.981             21.782
 Vibrational             16.578              4.724              2.260
 Vibration     1          0.809              1.361              0.795
 Vibration     2          0.809              1.361              0.795
 Vibration     3          0.947              1.054              0.468

 Optimization completed.
    -- Stationary point found.
 Normal termination of Gaussian 16 at Fri Jun 13 19:45:23 2025.
