 Gaussian 16, Revision B.01,
 Gaussian 16:  EM64L-G16RevB.01 20-Dec-2017

 -------------------------------------
 # hf/3-21g pop=full geom=connectivity
 -------------------------------------

 -------------------
 Title Card Required
 -------------------
 Symbolic Z-matrix:
 Charge =  0 Multiplicity = 1

                         Standard orientation:
 ---------------------------------------------------------------------
 Center     Atomic      Atomic             Coordinates (Angstroms)
 Number     Number       Type             X           Y           Z
 ---------------------------------------------------------------------
      1          6           0       -1.179326   -0.301174   -0.095038
      2          6           0       -1.183663    1.073568    0.005145
      3          6           0       -0.000027    1.776212   -0.004453
      4          6           0        1.183674    1.073577    0.005021
      5          6           0        1.179371   -0.301111   -0.095113
      6          7           0       -0.000013   -0.966940   -0.285440
      7          1           0       -0.000025    2.846111    0.046340
      8          1           0       -2.121458    1.573364    0.117303
      9          1           0        2.121446    1.573434    0.117115
     10          6           0       -2.500021   -1.010919    0.133496
     11          1           0       -3.059229   -0.420277    0.847609
     12          1           0       -3.069352   -1.092686   -0.778716
     13          1           0       -2.356359   -1.996816    0.541726
     14          6           0        2.500024   -1.010933    0.133557
     15          1           0        2.356228   -1.996799    0.541834
     16          1           0        3.069486   -1.092765   -0.778556
     17          1           0        3.059159   -0.420301    0.847738
 ---------------------------------------------------------------------

 SCF Done:  E(RHF) =  -322.944596035     A.U. after   14 cycles

 The electronic state is 1-A.
 Alpha  occ. eigenvalues --  -15.48345 -11.22527 -11.22503 -11.19134 -11.17024
 Alpha  occ. eigenvalues --  -11.17013 -11.16237 -11.16232  -1.25248  -1.08276
 Alpha  occ. eigenvalues --   -1.07543  -0.98825  -0.93537  -0.83653  -0.80702
 Alpha  occ. eigenvalues --   -0.69466  -0.67316  -0.61729  -0.59735  -0.57857
 Alpha  occ. eigenvalues --   -0.57403  -0.57264  -0.53656  -0.53458  -0.50233
 Alpha  occ. eigenvalues --   -0.50089  -0.38954  -0.36441  -0.33177
 Alpha virt. eigenvalues --    0.13094   0.14837   0.26452   0.30056   0.30499
 Alpha virt. eigenvalues --    0.31753   0.33239   0.33442   0.35344   0.37539
 Alpha virt. eigenvalues --    0.37568   0.41397   0.43416   0.45091   0.50206

 Mulliken charges:
               1
     1  C    0.298993
     2  C   -0.296848
     3  C   -0.168279
     4  C   -0.296849
     5  C    0.298928
     6  N   -0.714924
     7  H    0.248990
     8  H    0.235595
     9  H    0.235596
    10  C   -0.605652
    11  H    0.214132
    12  H    0.230219
    13  H    0.240702
    14  C   -0.605656
    15  H    0.240703
    16  H    0.230216
    17  H    0.214135
 Sum of Mulliken charges =  -0.00000

 Dipole moment (field-independent basis, Debye):
    X=             -0.0001    Y=              1.7337    Z=              0.7508  Tot=              1.8893
 Quadrupole moment (field-independent basis, Debye-Ang):
   XX=            -40.7371   YY=            -47.7747   ZZ=            -51.8239
   XY=              0.0001   XZ=              0.0001   YZ=             -0.5714

 Normal termination of Gaussian 16 at Mon Jun 16 22:53:57 2025.
