 Gaussian 16, Revision B.01,
 Gaussian 16:  EM64L-G16RevB.01 20-Dec-2017

 -------------------------------------
 # hf/3-21g pop=full geom=connectivity
 -------------------------------------

 -------------------
 Title Card Required
 -------------------
 Symbolic Z-matrix:
 Charge =  0 Multiplicity = 1

                         Standard orientation:
 ---------------------------------------------------------------------
 Center     Atomic      Atomic             Coordinates (Angstroms)
 Number     Number       Type             X           Y           Z
 ---------------------------------------------------------------------
      1          5           0       -0.000001   -0.000004    0.286387
      2          9           0       -0.464251    1.250933   -0.053034
      3          9           0       -0.851243   -1.027508   -0.053035
      4          9           0        1.315495   -0.223423   -0.053035
 ---------------------------------------------------------------------

 SCF Done:  E(RHF) =  -321.427428505     A.U. after   10 cycles

 The electronic state is 1-A.
 Alpha  occ. eigenvalues --  -26.20447 -26.20391 -26.20390  -7.79941  -1.65287
 Alpha  occ. eigenvalues --   -1.60435  -1.60435  -0.82075  -0.76195  -0.76195
 Alpha  occ. eigenvalues --   -0.72531  -0.65828  -0.65828  -0.64723  -0.64722
 Alpha  occ. eigenvalues --   -0.63417
 Alpha virt. eigenvalues --    0.06172   0.36993   0.37060   0.37061   0.55638
 Alpha virt. eigenvalues --    0.71098   0.71099   0.85931   2.15089   2.15090
 Alpha virt. eigenvalues --    2.30262   2.31831   2.31832   2.36486   2.40320

 Mulliken charges:
               1
     1  B    1.189217
     2  F   -0.396404
     3  F   -0.396403
     4  F   -0.396409
 Sum of Mulliken charges =  -0.00000

 Dipole moment (field-independent basis, Debye):
    X=             -0.0000    Y=             -0.0000    Z=              2.1723  Tot=              2.1723
 Quadrupole moment (field-independent basis, Debye-Ang):
   XX=            -22.7814   YY=            -22.7811   ZZ=            -16.3419
   XY=              0.0000   XZ=             -0.0000   YZ=             -0.0000

 Normal termination of Gaussian 16 at Tue Jun 17 14:19:43 2025.
