 Gaussian 16, Revision B.01,
 Gaussian 16:  EM64L-G16RevB.01 20-Dec-2017

 -------------------------------------
 # hf/3-21g pop=full geom=connectivity
 -------------------------------------

 -------------------
 Title Card Required
 -------------------
 Symbolic Z-matrix:
 Charge =  0 Multiplicity = 1

                         Standard orientation:
 ---------------------------------------------------------------------
 Center     Atomic      Atomic             Coordinates (Angstroms)
 Number     Number       Type             X           Y           Z
 ---------------------------------------------------------------------
      1          7           0       -0.000005   -0.000005   -0.097439
      2          1           0       -0.932422   -0.219879    0.227367
      3          1           0        0.275789    0.917431    0.227347
      4          1           0        0.656670   -0.697516    0.227357
 ---------------------------------------------------------------------

 SCF Done:  E(RHF) =  -55.8718792321     A.U. after   10 cycles

 The electronic state is 1-A.
 Alpha  occ. eigenvalues --  -15.43846  -1.12257  -0.61508  -0.61506  -0.39468
 Alpha virt. eigenvalues --    0.27088   0.37287   0.37287   1.17331   1.17336
 Alpha virt. eigenvalues --    1.30636   1.41462   1.59114   1.59114   2.58250

 Mulliken charges:
               1
     1  N   -0.858817
     2  H    0.286276
     3  H    0.286269
     4  H    0.286273
 Sum of Mulliken charges =  -0.00000

 Dipole moment (field-independent basis, Debye):
    X=              0.0001    Y=              0.0001    Z=              1.9405  Tot=              1.9405
 Quadrupole moment (field-independent basis, Debye-Ang):
   XX=             -5.8408   YY=             -5.8411   ZZ=             -8.6580
   XY=             -0.0000   XZ=             -0.0000   YZ=             -0.0000

 Normal termination of Gaussian 16 at Tue Jun 17 14:20:43 2025.
