 Gaussian 16, Revision B.01,
 Gaussian 16:  EM64L-G16RevB.01 20-Dec-2017

 ----------------------------------------------
 # opt freq hf/3-21g pop=full geom=connectivity
 ----------------------------------------------

 -------------------
 Title Card Required
 -------------------
 Symbolic Z-matrix:
 Charge =  0 Multiplicity = 1

 SCF Done:  E(RHF) =  -377.405076956     A.U. after   10 cycles
 SCF Done:  E(RHF) =  -377.405105963     A.U. after    8 cycles
 SCF Done:  E(RHF) =  -377.405118497     A.U. after    8 cycles
 Optimization completed.
    -- Stationary point found.
 Normal termination of Gaussian 16 at Tue Jun 17 14:08:52 2025.

 --------------------------------------------------------------
 #N Geom=AllCheck Guess=TCheck SCRF=Check GenChk RHF/3-21G Freq
 --------------------------------------------------------------

 Structure from the checkpoint file:  "NH3_BF3_adduct_opt.chk"
 -------------------
 Title Card Required
 -------------------
 Charge =  0 Multiplicity = 1

                         Standard orientation:
 ---------------------------------------------------------------------
 Center     Atomic      Atomic             Coordinates (Angstroms)
 Number     Number       Type             X           Y           Z
 ---------------------------------------------------------------------
      1          5           0        0.207565    0.000007    0.000016
      2          9           0        0.546657    0.399557    1.273183
      3          9           0        0.547186    0.902801   -0.982433
      4          9           0        0.547117   -1.302296   -0.290441
      5          7           0       -1.483208   -0.000046   -0.000278
      6          1           0       -1.807957    0.552113   -0.783159
      7          1           0       -1.808195    0.401757    0.869306
      8          1           0       -1.807860   -0.954144   -0.087070
 ---------------------------------------------------------------------

 SCF Done:  E(RHF) =  -377.405118497     A.U. after    1 cycles

 The electronic state is 1-A.
 Alpha  occ. eigenvalues --  -26.11205 -26.11125 -26.11125 -15.59229  -7.68731
 Alpha  occ. eigenvalues --   -1.57562  -1.52619  -1.52619  -1.27793  -0.76987
 Alpha  occ. eigenvalues --   -0.76348  -0.76346  -0.70004  -0.68032  -0.68032
 Alpha  occ. eigenvalues --   -0.59053  -0.59053  -0.57092  -0.57091  -0.55467
 Alpha  occ. eigenvalues --   -0.54309
 Alpha virt. eigenvalues --    0.20012   0.27581   0.27582   0.42663   0.45529
 Alpha virt. eigenvalues --    0.45530   0.48527   0.69713   0.80688   0.80688
 Alpha virt. eigenvalues --    0.96919   1.15478   1.15482   1.20745   1.47724

 Mulliken charges:
               1
     1  B    1.190558
     2  F   -0.464580
     3  F   -0.464565
     4  F   -0.464576
     5  N   -0.976237
     6  H    0.393134
     7  H    0.393134
     8  H    0.393132
 Sum of Mulliken charges =  -0.00000

 Dipole moment (field-independent basis, Debye):
    X=             -6.8360    Y=             -0.0004    Z=             -0.0013  Tot=              6.8360
 Quadrupole moment (field-independent basis, Debye-Ang):
   XX=            -18.1705   YY=            -29.0152   ZZ=            -29.0150
   XY=              0.0004   XZ=              0.0021   YZ=             -0.0002

  Exact polarizability:  12.344  -0.000  14.238  -0.001  -0.000  14.237
 Approx polarizability:   9.049  -0.000  12.200  -0.001  -0.000  12.199

                      1                      2                      3
                      A                      A                      A
 Frequencies --     18.7779               301.9354               301.9490
 Red. masses --      1.0342                 4.2900                 4.2896
 Frc consts  --      0.0002                 0.2304                 0.2304
 IR Inten    --      0.0009                11.2900                11.2910
 Raman Activ --      0.0015                 0.0184                 0.0183

                      4                      5                      6
                      A                      A                      A
 Frequencies --    479.6426               479.6485               505.1678
 Red. masses --      7.5043                 7.5046                 5.3729
 Frc consts  --      1.0172                 1.0172                 0.8078
 IR Inten    --      3.4736                 3.4740                12.6887
 Raman Activ --      0.6839                 0.6838                 0.8487

                      7                      8                      9
                      A                      A                      A
 Frequencies --    733.9210               905.1451               905.1878
 Red. masses --     11.4747                 1.4294                 1.4294
 Frc consts  --      3.6416                 0.6900                 0.6900
 IR Inten    --    168.0984                14.3108                14.3093
 Raman Activ --      1.4539                 3.0180                 3.0185

                     10                     11                     12
                      A                      A                      A
 Frequencies --   1005.0824              1494.8622              1495.4236
 Red. masses --     14.0560                 1.1944                 8.6356
 Frc consts  --      8.3660                 1.5726                11.3781
 IR Inten    --    338.2568               371.2992               381.7967
 Raman Activ --      0.4312                 1.0307                 0.0216

                     13                     14                     15
                      A                      A                      A
 Frequencies --   1495.4848              1839.2664              1839.3161
 Red. masses --      8.6380                 1.0617                 1.0617
 Frc consts  --     11.3823                 2.1161                 2.1162
 IR Inten    --    381.7775                54.3421                54.3432
 Raman Activ --      0.0215                10.0549                10.0554

                     16                     17                     18
                      A                      A                      A
 Frequencies --   3593.9715              3709.4664              3709.4892
 Red. masses --      1.0242                 1.0918                 1.0918
 Frc consts  --      7.7941                 8.8512                 8.8513
 IR Inten    --     27.5496                89.8542                89.8510
 Raman Activ --     66.9957                36.6748                36.6727

 - Thermochemistry -
 -------------------
 Temperature   298.150 Kelvin.  Pressure   1.00000 Atm.
 Atom     1 has atomic number  5 and mass  11.00931

 Molecular mass:    85.03106 amu.
 Principal axes and moments of inertia in atomic units:
                           1         2         3
     Eigenvalues --   372.27991 391.83516 391.84501
           X            1.00000   0.00009   0.00037
           Y           -0.00008   0.99966  -0.02604
           Z           -0.00037   0.02604   0.99966
 This molecule is an asymmetric top.
 Rotational symmetry number  1.
 Rotational temperatures (Kelvin)      0.23266     0.22105     0.22104
 Rotational constants (GHZ):           4.84781     4.60587     4.60575
 Zero-point vibrational energy     148419.1 (Joules/Mol)
                                   35.47302 (Kcal/Mol)
 Warning -- explicit consideration of   6 degrees of freedom as
           vibrations may cause significant error
 Vibrational temperatures:     27.02   434.42   434.44   690.10   690.11
          (Kelvin)            726.82  1055.95  1302.30  1302.36  1446.09
                             2150.77  2151.58  2151.67  2646.29  2646.37
                             5170.92  5337.09  5337.13

 Zero-point correction=                           0.056530 (Hartree/Particle)
 Thermal correction to Energy=                    0.062059
 Thermal correction to Enthalpy=                  0.063003
 Thermal correction to Gibbs Free Energy=         0.026371
 Sum of electronic and zero-point Energies=           -377.348589
 Sum of electronic and thermal Energies=              -377.343060
 Sum of electronic and thermal Enthalpies=            -377.342116
 Sum of electronic and thermal Free Energies=         -377.378748

                     E (Thermal)             CV                S
                      KCal/Mol        Cal/Mol-Kelvin    Cal/Mol-Kelvin
 Total                   38.942             17.512             77.099
 Electronic               0.000              0.000              0.000
 Translational            0.889              2.981             39.235
 Rotational               0.889              2.981             25.550
 Vibrational             37.165             11.551             12.314
 Vibration     1          0.593              1.986              6.759
 Vibration     2          0.694              1.670              1.406
 Vibration     3          0.694              1.670              1.406
 Vibration     4          0.836              1.295              0.711
 Vibration     5          0.836              1.295              0.711
 Vibration     6          0.860              1.239              0.645

                           ! Non-Optimized Parameters !
 Normal termination of Gaussian 16 at Tue Jun 17 14:08:53 2025.
