 Gaussian 16, Revision B.01,
 Gaussian 16:  EM64L-G16RevB.01 20-Dec-2017

 -------------------------------------
 # hf/3-21g pop=full geom=connectivity
 -------------------------------------

 -------------------
 Title Card Required
 -------------------
 Symbolic Z-matrix:
 Charge =  0 Multiplicity = 1

                         Standard orientation:
 ---------------------------------------------------------------------
 Center     Atomic      Atomic             Coordinates (Angstroms)
 Number     Number       Type             X           Y           Z
 ---------------------------------------------------------------------
      1          5           0       -0.207565   -0.000007    0.000016
      2          9           0       -0.546657   -0.404818    1.271520
      3          9           0       -0.547187   -0.898731   -0.986157
      4          9           0       -0.547117    1.303486   -0.285053
      5          7           0        1.483208    0.000046   -0.000278
      6          1           0        1.807956   -0.548871   -0.785436
      7          1           0        1.808195   -0.405349    0.867637
      8          1           0        1.807860    0.954495   -0.083125
 ---------------------------------------------------------------------

 SCF Done:  E(RHF) =  -377.405118498     A.U. after   10 cycles

 The electronic state is 1-A.
 Alpha  occ. eigenvalues --  -26.11205 -26.11125 -26.11125 -15.59229  -7.68731
 Alpha  occ. eigenvalues --   -1.57562  -1.52619  -1.52619  -1.27793  -0.76987
 Alpha  occ. eigenvalues --   -0.76348  -0.76346  -0.70004  -0.68032  -0.68032
 Alpha  occ. eigenvalues --   -0.59053  -0.59053  -0.57092  -0.57091  -0.55467
 Alpha  occ. eigenvalues --   -0.54309
 Alpha virt. eigenvalues --    0.20012   0.27581   0.27582   0.42663   0.45529
 Alpha virt. eigenvalues --    0.45530   0.48527   0.69713   0.80688   0.80688
 Alpha virt. eigenvalues --    0.96919   1.15478   1.15482   1.20745   1.47724

 Mulliken charges:
               1
     1  B    1.190558
     2  F   -0.464580
     3  F   -0.464565
     4  F   -0.464576
     5  N   -0.976237
     6  H    0.393134
     7  H    0.393134
     8  H    0.393132
 Sum of Mulliken charges =  -0.00000

 Dipole moment (field-independent basis, Debye):
    X=              6.8360    Y=              0.0004    Z=             -0.0013  Tot=              6.8360
 Quadrupole moment (field-independent basis, Debye-Ang):
   XX=            -18.1705   YY=            -29.0152   ZZ=            -29.0149
   XY=              0.0004   XZ=             -0.0021   YZ=              0.0002

 Normal termination of Gaussian 16 at Tue Jun 17 14:10:26 2025.
