 Gaussian 16, Revision B.01,
 Gaussian 16:  EM64L-G16RevB.01 20-Dec-2017

 -------------------------------------
 # hf/3-21g pop=full geom=connectivity
 -------------------------------------

 ------
 BF3 sp
 ------
 Symbolic Z-matrix:
 Charge =  0 Multiplicity = 1

                         Standard orientation:
 ---------------------------------------------------------------------
 Center     Atomic      Atomic             Coordinates (Angstroms)
 Number     Number       Type             X           Y           Z
 ---------------------------------------------------------------------
      1          5           0        0.000000    0.000000    0.000000
      2          9           0        0.000000    1.328476    0.000000
      3          9           0        1.150494   -0.664238    0.000000
      4          9           0       -1.150494   -0.664238    0.000000
 ---------------------------------------------------------------------

 SCF Done:  E(RHF) =  -321.465844851     A.U. after    9 cycles

 The electronic state is 1-A1'.
 Alpha  occ. eigenvalues --  -26.21544 -26.21529 -26.21529  -7.78042  -1.67617
 Alpha  occ. eigenvalues --   -1.62966  -1.62966  -0.83221  -0.78740  -0.78740
 Alpha  occ. eigenvalues --   -0.75061  -0.67358  -0.67358  -0.66563  -0.66563
 Alpha  occ. eigenvalues --   -0.64726
 Alpha virt. eigenvalues --    0.17822   0.25826   0.41500   0.41500   0.55263
 Alpha virt. eigenvalues --    0.77883   0.77883   0.89706   2.17103   2.17103
 Alpha virt. eigenvalues --    2.28091   2.28091   2.29368   2.37982   2.42509

 Mulliken charges:
               1
     1  B    1.176399
     2  F   -0.392133
     3  F   -0.392133
     4  F   -0.392133
 Sum of Mulliken charges =   0.00000

 Dipole moment (field-independent basis, Debye):
    X=              0.0000    Y=              0.0000    Z=             -0.0000  Tot=              0.0000
 Quadrupole moment (field-independent basis, Debye-Ang):
   XX=            -22.6718   YY=            -22.6718   ZZ=            -16.8985
   XY=             -0.0000   XZ=              0.0000   YZ=              0.0000

 Normal termination of Gaussian 16 at Mon Jun 16 18:21:46 2025.
