 Gaussian 16, Revision B.01,
 Gaussian 16:  EM64L-G16RevB.01 20-Dec-2017

 ----------------------------------------------
 # opt freq hf/3-21g pop=full geom=connectivity
 ----------------------------------------------

 -------
 BF3 opt
 -------
 Symbolic Z-matrix:
 Charge =  0 Multiplicity = 1

 SCF Done:  E(RHF) =  -321.418697741     A.U. after   10 cycles
 SCF Done:  E(RHF) =  -321.460715675     A.U. after   10 cycles
 SCF Done:  E(RHF) =  -321.465843210     A.U. after    9 cycles
 SCF Done:  E(RHF) =  -321.465844851     A.U. after    7 cycles
 Optimization completed.
    -- Stationary point found.
 Normal termination of Gaussian 16 at Mon Jun 16 18:21:12 2025.

 --------------------------------------------------------------
 #N Geom=AllCheck Guess=TCheck SCRF=Check GenChk RHF/3-21G Freq
 --------------------------------------------------------------

 Structure from the checkpoint file:  "BF3_opt.chk"
 -------
 BF3 opt
 -------
 Charge =  0 Multiplicity = 1

                         Standard orientation:
 ---------------------------------------------------------------------
 Center     Atomic      Atomic             Coordinates (Angstroms)
 Number     Number       Type             X           Y           Z
 ---------------------------------------------------------------------
      1          5           0        0.000000    0.000000    0.000000
      2          9           0       -0.000000    1.328476    0.000000
      3          9           0       -1.150494   -0.664238    0.000000
      4          9           0        1.150494   -0.664238    0.000000
 ---------------------------------------------------------------------

 SCF Done:  E(RHF) =  -321.465844851     A.U. after    1 cycles

 Unable to determine electronic state:  an orbital has unidentified symmetry.
 Alpha  occ. eigenvalues --  -26.21544 -26.21529 -26.21529  -7.78042  -1.67617
 Alpha  occ. eigenvalues --   -1.62966  -1.62966  -0.83221  -0.78740  -0.78740
 Alpha  occ. eigenvalues --   -0.75061  -0.67358  -0.67358  -0.66563  -0.66563
 Alpha  occ. eigenvalues --   -0.64726
 Alpha virt. eigenvalues --    0.17822   0.25826   0.41500   0.41500   0.55263
 Alpha virt. eigenvalues --    0.77883   0.77883   0.89706   2.17103   2.17103
 Alpha virt. eigenvalues --    2.28091   2.28091   2.29368   2.37982   2.42509

 Mulliken charges:
               1
     1  B    1.176399
     2  F   -0.392133
     3  F   -0.392133
     4  F   -0.392133
 Sum of Mulliken charges =   0.00000

 Dipole moment (field-independent basis, Debye):
    X=             -0.0000    Y=              0.0000    Z=              0.0000  Tot=              0.0000
 Quadrupole moment (field-independent basis, Debye-Ang):
   XX=            -22.6718   YY=            -22.6718   ZZ=            -16.8985
   XY=              0.0000   XZ=             -0.0000   YZ=             -0.0000

  Exact polarizability:   8.545   0.000   8.545   0.000   0.000   4.383
 Approx polarizability:   7.635   0.000   7.635  -0.000  -0.000   3.307

                      1                      2                      3
                     ?A                     ?A                     A2"
 Frequencies --    495.4385               495.4385               691.3105
 Red. masses --     17.8411                17.8411                11.8135
 Frc consts  --      2.5802                 2.5802                 3.3264
 IR Inten    --     25.0451                25.0451               191.3015
 Raman Activ --      0.7589                 0.7589                 0.0000

                      4                      5                      6
                     ?B                     ?A                     ?A
 Frequencies --    950.8053              1656.0678              1656.0678
 Red. masses --     18.9984                12.3101                12.3101
 Frc consts  --     10.1193                19.8915                19.8915
 IR Inten    --      0.0000               406.5182               406.5182
 Raman Activ --      2.0447                 0.0216                 0.0216

 - Thermochemistry -
 -------------------
 Temperature   298.150 Kelvin.  Pressure   1.00000 Atm.
 Atom     1 has atomic number  5 and mass  11.00931

 Molecular mass:    68.00452 amu.
 Principal axes and moments of inertia in atomic units:
                           1         2         3
     Eigenvalues --   179.60290 179.60290 359.20579
           X            0.47186   0.88167   0.00000
           Y            0.88167  -0.47186   0.00000
           Z            0.00000  -0.00000   1.00000
 This molecule is an oblate symmetric top.
 Rotational symmetry number  6.
 Rotational temperatures (Kelvin)      0.48225     0.48225     0.24113
 Rotational constants (GHZ):          10.04851    10.04851     5.02425
 Zero-point vibrational energy      35559.8 (Joules/Mol)
                                    8.49899 (Kcal/Mol)
 Warning -- explicit consideration of   2 degrees of freedom as
           vibrations may cause significant error
 Vibrational temperatures:    712.83   712.83   994.64  1368.00  2382.71
          (Kelvin)           2382.71

 Zero-point correction=                           0.013544 (Hartree/Particle)
 Thermal correction to Energy=                    0.016997
 Thermal correction to Enthalpy=                  0.017942
 Thermal correction to Gibbs Free Energy=        -0.010925
 Sum of electronic and zero-point Energies=           -321.452301
 Sum of electronic and thermal Energies=              -321.448847
 Sum of electronic and thermal Enthalpies=            -321.447903
 Sum of electronic and thermal Free Energies=         -321.476770

                     E (Thermal)             CV                S
                      KCal/Mol        Cal/Mol-Kelvin    Cal/Mol-Kelvin
 Total                   10.666              9.848             60.754
 Electronic               0.000              0.000              0.000
 Translational            0.889              2.981             38.569
 Rotational               0.889              2.981             20.404
 Vibrational              8.889              3.886              1.782
 Vibration     1          0.851              1.260              0.670
 Vibration     2          0.851              1.260              0.670

 Optimization completed.
    -- Stationary point found.
 Normal termination of Gaussian 16 at Mon Jun 16 18:21:13 2025.
