 Gaussian 16, Revision B.01,
 Gaussian 16:  EM64L-G16RevB.01 20-Dec-2017

 ----------------------------------------------
 # opt freq hf/3-21g pop=full geom=connectivity
 ----------------------------------------------

 -----------
 2,6 DMP opt
 -----------
 Symbolic Z-matrix:
 Charge =  0 Multiplicity = 1

 SCF Done:  E(RHF) =  -322.961849000     A.U. after   13 cycles
 Optimization completed.
    -- Stationary point found.
 Normal termination of Gaussian 16 at Mon Jun 16 16:40:54 2025.

 --------------------------------------------------------------
 #N Geom=AllCheck Guess=TCheck SCRF=Check GenChk RHF/3-21G Freq
 --------------------------------------------------------------

 Structure from the checkpoint file:  "26DMP_opt.chk"
 -----------
 2,6 DMP opt
 -----------
 Charge =  0 Multiplicity = 1

                         Standard orientation:
 ---------------------------------------------------------------------
 Center     Atomic      Atomic             Coordinates (Angstroms)
 Number     Number       Type             X           Y           Z
 ---------------------------------------------------------------------
      1          6           0        0.000019   -1.155928    0.260285
      2          6           0        0.000011   -1.193565   -1.124299
      3          6           0        0.000000   -0.000000   -1.821622
      4          6           0       -0.000011    1.193565   -1.124299
      5          6           0       -0.000019    1.155928    0.260285
      6          7           0       -0.000000    0.000000    0.920758
      7          1           0        0.000000   -0.000000   -2.893728
      8          1           0        0.000069   -2.132407   -1.638166
      9          1           0       -0.000069    2.132407   -1.638166
     10          6           0        0.000000    2.413476    1.094531
     11          1           0        0.874964    2.427749    1.733628
     12          1           0       -0.000226    3.301603    0.476497
     13          1           0       -0.874672    2.427555    1.734024
     14          6           0       -0.000000   -2.413476    1.094531
     15          1           0        0.874672   -2.427555    1.734024
     16          1           0       -0.874964   -2.427749    1.733628
     17          1           0        0.000226   -3.301603    0.476497
 ---------------------------------------------------------------------

 SCF Done:  E(RHF) =  -322.961849000     A.U. after    1 cycles

 The electronic state is 1-A.
 Alpha  occ. eigenvalues --  -15.47445 -11.22180 -11.22157 -11.19396 -11.17412
 Alpha  occ. eigenvalues --  -11.17405 -11.15864 -11.15859  -1.27178  -1.08627
 Alpha  occ. eigenvalues --   -1.07399  -0.98001  -0.93804  -0.83607  -0.81521
 Alpha  occ. eigenvalues --   -0.69543  -0.67649  -0.61545  -0.59700  -0.57918
 Alpha  occ. eigenvalues --   -0.57689  -0.56947  -0.53478  -0.53382  -0.50229
 Alpha  occ. eigenvalues --   -0.49884  -0.38789  -0.37382  -0.33358
 Alpha virt. eigenvalues --    0.13304   0.15242   0.26509   0.30168   0.30954
 Alpha virt. eigenvalues --    0.32923   0.32960   0.34310   0.36392   0.36678
 Alpha virt. eigenvalues --    0.38301   0.41724   0.43651   0.45081   0.48680

 Mulliken charges:
               1
     1  C    0.322566
     2  C   -0.307071
     3  C   -0.164271
     4  C   -0.307071
     5  C    0.322566
     6  N   -0.748708
     7  H    0.249378
     8  H    0.238196
     9  H    0.238196
    10  C   -0.591955
    11  H    0.234961
    12  H    0.200136
    13  H    0.234966
    14  C   -0.591955
    15  H    0.234966
    16  H    0.234961
    17  H    0.200136
 Sum of Mulliken charges =  -0.00000

 Dipole moment (field-independent basis, Debye):
    X=             -0.0000    Y=             -0.0000    Z=             -1.5903  Tot=              1.5903
 Quadrupole moment (field-independent basis, Debye-Ang):
   XX=            -51.6214   YY=            -41.9535   ZZ=            -47.0494
   XY=             -0.0001   XZ=             -0.0000   YZ=              0.0000

  Exact polarizability:  33.242  -0.000  88.263  -0.000   0.000  76.612
 Approx polarizability:  30.658  -0.000  77.689  -0.000   0.000  75.395

                      1                      2                      3
                      A                      B                      B
 Frequencies --     40.3300                43.3246               231.5175
 Red. masses --      1.0221                 1.0462                 3.2987
 Frc consts  --      0.0010                 0.0012                 0.1042
 IR Inten    --      0.0000                 1.1288                12.0001
 Raman Activ --      0.1732                 0.0056                 1.2412

                      4                      5                      6
                      A                      A                      B
 Frequencies --    235.3080               295.4556               440.9001
 Red. masses --      2.9176                 2.5308                 2.6089
 Frc consts  --      0.0952                 0.1302                 0.2988
 IR Inten    --      0.0000                 1.7217                 3.6802
 Raman Activ --      4.6951                 0.7050                 0.2751

                      7                      8                      9
                      B                      B                      A
 Frequencies --    511.0132               596.2884               609.0767
 Red. masses --      3.3260                 4.9851                 4.9223
 Frc consts  --      0.5117                 1.0443                 1.0759
 IR Inten    --      0.0380                 3.4647                 2.6210
 Raman Activ --      1.3450                 5.7497                11.7078

                     10                     11                     12
                      A                      A                      B
 Frequencies --    638.0576               785.9236               864.3332
 Red. masses --      2.7797                 6.3683                 2.2552
 Frc consts  --      0.6668                 2.3176                 0.9927
 IR Inten    --      0.0000                 1.4419                 4.3325
 Raman Activ --      0.1421                15.5668                 2.0352

                     13                     14                     15
                      B                      B                      A
 Frequencies --    918.4369               978.6992              1068.6423
 Red. masses --      1.3240                 3.6573                 1.3076
 Frc consts  --      0.6580                 2.0640                 0.8798
 IR Inten    --     48.5365                 0.0002                 0.0000
 Raman Activ --      0.5232                 0.6482                 1.2954

                     16                     17                     18
                      A                      A                      B
 Frequencies --   1083.3747              1121.0667              1133.6271
 Red. masses --      3.0342                 2.2309                 2.3545
 Frc consts  --      2.0982                 1.6520                 1.7827
 IR Inten    --      2.8693                 0.7856                 1.9355
 Raman Activ --      6.7214                16.1446                 0.1653

                     19                     20                     21
                      B                      A                      A
 Frequencies --   1180.7628              1216.3737              1217.1133
 Red. masses --      1.3879                 1.6253                 1.5908
 Frc consts  --      1.1401                 1.4168                 1.3884
 IR Inten    --      1.9935                 0.0000                 4.0988
 Raman Activ --      0.7398                 0.5705                 4.6769

                     22                     23                     24
                      B                      B                      B
 Frequencies --   1220.9840              1221.6398              1336.1737
 Red. masses --      2.9080                 1.7169                 1.3112
 Frc consts  --      2.5542                 1.5097                 1.3793
 IR Inten    --      2.0932                25.6513                 1.2115
 Raman Activ --      0.0043                 0.0144                 1.7051

                     25                     26                     27
                      B                      A                      A
 Frequencies --   1378.6828              1402.5340              1571.7214
 Red. masses --      1.9422                 4.4167                 1.7017
 Frc consts  --      2.1751                 5.1189                 2.4767
 IR Inten    --     23.8481                 9.6199                 5.3250
 Raman Activ --      0.6296                 4.4123                18.3843

                     28                     29                     30
                      B                      A                      B
 Frequencies --   1576.3648              1581.1393              1626.7240
 Red. masses --      1.2131                 1.5713                 1.8145
 Frc consts  --      1.7761                 2.3145                 2.8291
 IR Inten    --     13.9750                 0.9985                42.1207
 Raman Activ --     13.6854                 5.2739                 0.0005

                     31                     32                     33
                      A                      B                      B
 Frequencies --   1652.6738              1652.7807              1656.9682
 Red. masses --      1.0437                 1.0447                 1.0974
 Frc consts  --      1.6795                 1.6813                 1.7753
 IR Inten    --      0.0000                11.5953                31.3098
 Raman Activ --     47.9186                 0.1773                 0.4380

                     34                     35                     36
                      A                      B                      A
 Frequencies --   1665.1132              1746.1588              1758.7626
 Red. masses --      1.1552                 5.4030                 3.9834
 Frc consts  --      1.8871                 9.7063                 7.2597
 IR Inten    --     27.7864                65.0321                55.8166
 Raman Activ --     26.1634                20.9050                10.7164

                     37                     38                     39
                      B                      A                      A
 Frequencies --   3209.2682              3209.7185              3263.6014
 Red. masses --      1.0339                 1.0339                 1.0999
 Frc consts  --      6.2737                 6.2755                 6.9024
 IR Inten    --     23.2161                 7.7428                 0.0000
 Raman Activ --      7.1949               251.2014                24.2107

                     40                     41                     42
                      B                      B                      A
 Frequencies --   3263.8198              3280.3074              3280.6864
 Red. masses --      1.0999                 1.1020                 1.1019
 Frc consts  --      6.9034                 6.9864                 6.9874
 IR Inten    --     26.3530                21.7834                14.6674
 Raman Activ --    146.7204                47.2481                71.4907

                     43                     44                     45
                      A                      B                      A
 Frequencies --   3359.8525              3385.5834              3394.1064
 Red. masses --      1.0887                 1.0917                 1.0970
 Frc consts  --      7.2411                 7.3728                 7.4455
 IR Inten    --      6.6243                15.0811                 7.7216
 Raman Activ --     69.9694                48.8483               151.4672

 - Thermochemistry -
 -------------------
 Temperature   298.150 Kelvin.  Pressure   1.00000 Atm.
 Atom     1 has atomic number  6 and mass  12.00000

 Molecular mass:   107.07350 amu.
 Principal axes and moments of inertia in atomic units:
                           1         2         3
     Eigenvalues --   506.69599 942.889911427.55114
           X           -0.00000  -0.00000   1.00000
           Y            1.00000  -0.00000   0.00000
           Z            0.00000   1.00000   0.00000
 This molecule is an asymmetric top.
 Rotational symmetry number  2.
 Warning -- assumption of classical behavior for rotation
           may cause significant error
 Rotational temperatures (Kelvin)      0.17094     0.09186     0.06067
 Rotational constants (GHZ):           3.56178     1.91405     1.26422
 Zero-point vibrational energy     406162.0 (Joules/Mol)
                                   97.07506 (Kcal/Mol)
 Warning -- explicit consideration of   9 degrees of freedom as
           vibrations may cause significant error
 Vibrational temperatures:     58.03    62.33   333.10   338.56   425.09
          (Kelvin)            634.36   735.23   857.93   876.33   918.02
                             1130.77  1243.58  1321.43  1408.13  1537.54
                             1558.73  1612.96  1631.04  1698.85  1750.09
                             1751.15  1756.72  1757.67  1922.46  1983.62
                             2017.93  2261.36  2268.04  2274.91  2340.49
                             2377.83  2377.98  2384.01  2395.73  2512.33
                             2530.47  4617.42  4618.07  4695.59  4695.91
                             4719.63  4720.18  4834.08  4871.10  4883.36

 Zero-point correction=                           0.154699 (Hartree/Particle)
 Thermal correction to Energy=                    0.162094
 Thermal correction to Enthalpy=                  0.163038
 Thermal correction to Gibbs Free Energy=         0.122192
 Sum of electronic and zero-point Energies=           -322.807150
 Sum of electronic and thermal Energies=              -322.799755
 Sum of electronic and thermal Enthalpies=            -322.798811
 Sum of electronic and thermal Free Energies=         -322.839657

                     E (Thermal)             CV                S
                      KCal/Mol        Cal/Mol-Kelvin    Cal/Mol-Kelvin
 Total                  101.715             25.804             85.967
 Electronic               0.000              0.000              0.000
 Translational            0.889              2.981             39.922
 Rotational               0.889              2.981             26.636
 Vibrational             99.938             19.843             19.409
 Vibration     1          0.594              1.981              5.243
 Vibration     2          0.595              1.980              5.101
 Vibration     3          0.653              1.793              1.867
 Vibration     4          0.655              1.787              1.838
 Vibration     5          0.690              1.682              1.443
 Vibration     6          0.801              1.381              0.824
 Vibration     7          0.866              1.226              0.631
 Vibration     8          0.954              1.040              0.456
 Vibration     9          0.968              1.013              0.434

 Optimization completed.
    -- Stationary point found.
 Normal termination of Gaussian 16 at Mon Jun 16 16:40:59 2025.
