 Gaussian 16, Revision B.01,
 Gaussian 16:  EM64L-G16RevB.01 20-Dec-2017

 -------------------------------------
 # hf/3-21g pop=full geom=connectivity
 -------------------------------------

 ----------
 2,6 DMP sp
 ----------
 Symbolic Z-matrix:
 Charge =  0 Multiplicity = 1

                         Standard orientation:
 ---------------------------------------------------------------------
 Center     Atomic      Atomic             Coordinates (Angstroms)
 Number     Number       Type             X           Y           Z
 ---------------------------------------------------------------------
      1          6           0        0.000019   -1.155928    0.260285
      2          6           0        0.000011   -1.193565   -1.124299
      3          6           0        0.000000    0.000000   -1.821622
      4          6           0       -0.000011    1.193565   -1.124299
      5          6           0       -0.000019    1.155928    0.260285
      6          7           0       -0.000000   -0.000000    0.920758
      7          1           0        0.000000    0.000000   -2.893728
      8          1           0        0.000069   -2.132407   -1.638166
      9          1           0       -0.000069    2.132407   -1.638166
     10          6           0       -0.000000    2.413476    1.094531
     11          1           0        0.874964    2.427749    1.733628
     12          1           0       -0.000226    3.301603    0.476497
     13          1           0       -0.874672    2.427555    1.734024
     14          6           0       -0.000000   -2.413476    1.094531
     15          1           0        0.874672   -2.427555    1.734024
     16          1           0       -0.874964   -2.427749    1.733628
     17          1           0        0.000226   -3.301603    0.476497
 ---------------------------------------------------------------------

 SCF Done:  E(RHF) =  -322.961849000     A.U. after   13 cycles

 The electronic state is 1-A.
 Alpha  occ. eigenvalues --  -15.47445 -11.22180 -11.22157 -11.19396 -11.17412
 Alpha  occ. eigenvalues --  -11.17405 -11.15864 -11.15859  -1.27178  -1.08627
 Alpha  occ. eigenvalues --   -1.07399  -0.98001  -0.93804  -0.83607  -0.81521
 Alpha  occ. eigenvalues --   -0.69543  -0.67649  -0.61545  -0.59700  -0.57918
 Alpha  occ. eigenvalues --   -0.57689  -0.56947  -0.53478  -0.53382  -0.50229
 Alpha  occ. eigenvalues --   -0.49884  -0.38789  -0.37382  -0.33358
 Alpha virt. eigenvalues --    0.13304   0.15242   0.26509   0.30168   0.30954
 Alpha virt. eigenvalues --    0.32923   0.32960   0.34310   0.36392   0.36678
 Alpha virt. eigenvalues --    0.38301   0.41724   0.43651   0.45081   0.48680

 Mulliken charges:
               1
     1  C    0.322566
     2  C   -0.307071
     3  C   -0.164271
     4  C   -0.307071
     5  C    0.322566
     6  N   -0.748708
     7  H    0.249378
     8  H    0.238196
     9  H    0.238196
    10  C   -0.591954
    11  H    0.234961
    12  H    0.200136
    13  H    0.234966
    14  C   -0.591954
    15  H    0.234966
    16  H    0.234961
    17  H    0.200136
 Sum of Mulliken charges =   0.00000

 Dipole moment (field-independent basis, Debye):
    X=             -0.0000    Y=              0.0000    Z=             -1.5903  Tot=              1.5903
 Quadrupole moment (field-independent basis, Debye-Ang):
   XX=            -51.6214   YY=            -41.9535   ZZ=            -47.0494
   XY=             -0.0001   XZ=             -0.0000   YZ=             -0.0000

 Normal termination of Gaussian 16 at Mon Jun 16 16:41:53 2025.
