 Gaussian 16, Revision B.01,
 Gaussian 16:  EM64L-G16RevB.01 20-Dec-2017

 -------------------------------------
 # hf/3-21g pop=full geom=connectivity
 -------------------------------------

 --------------
 2,6 DMP ion sp
 --------------
 Symbolic Z-matrix:
 Charge =  1 Multiplicity = 1

                         Standard orientation:
 ---------------------------------------------------------------------
 Center     Atomic      Atomic             Coordinates (Angstroms)
 Number     Number       Type             X           Y           Z
 ---------------------------------------------------------------------
      1          6           0       -0.000000    1.196710    0.221373
      2          6           0        0.000000    1.204498   -1.150672
      3          6           0        0.000000    0.000000   -1.837312
      4          6           0       -0.000000   -1.204498   -1.150672
      5          6           0       -0.000000   -1.196710    0.221373
      6          7           0       -0.000000   -0.000000    0.848054
      7          1           0        0.000000    0.000000   -2.908463
      8          1           0       -0.000001    2.136677   -1.672223
      9          1           0        0.000001   -2.136677   -1.672223
     10          6           0       -0.000023   -2.435258    1.075053
     11          1           0       -0.881858   -2.459886    1.706196
     12          1           0        0.000172   -3.318896    0.455430
     13          1           0        0.881586   -2.459720    1.706515
     14          6           0        0.000023    2.435258    1.075053
     15          1           0       -0.881586    2.459720    1.706515
     16          1           0        0.881858    2.459886    1.706196
     17          1           0       -0.000172    3.318896    0.455430
     18          1           0       -0.000000   -0.000000    1.855087
 ---------------------------------------------------------------------

 SCF Done:  E(RHF) =  -323.360315118     A.U. after   13 cycles

 The electronic state is 1-A.
 Alpha  occ. eigenvalues --  -15.77428 -11.45216 -11.45193 -11.39679 -11.36641
 Alpha  occ. eigenvalues --  -11.36634 -11.34251 -11.34246  -1.52975  -1.30162
 Alpha  occ. eigenvalues --   -1.28925  -1.17632  -1.13317  -1.07022  -1.03917
 Alpha  occ. eigenvalues --   -0.94282  -0.88421  -0.84743  -0.81481  -0.80022
 Alpha  occ. eigenvalues --   -0.77471  -0.75374  -0.74301  -0.71801  -0.70861
 Alpha  occ. eigenvalues --   -0.70157  -0.69617  -0.59899  -0.53177
 Alpha virt. eigenvalues --   -0.09654  -0.03804   0.06434   0.12414   0.14101
 Alpha virt. eigenvalues --    0.14383   0.15758   0.15973   0.17224   0.19555
 Alpha virt. eigenvalues --    0.19837   0.21274   0.22025   0.25473   0.26824

 Mulliken charges:
               1
     1  C    0.476309
     2  C   -0.328572
     3  C   -0.096800
     4  C   -0.328572
     5  C    0.476309
     6  N   -1.011492
     7  H    0.331786
     8  H    0.315984
     9  H    0.315984
    10  C   -0.629934
    11  H    0.278345
    12  H    0.282028
    13  H    0.278329
    14  C   -0.629934
    15  H    0.278329
    16  H    0.278345
    17  H    0.282028
    18  H    0.431527
 Sum of Mulliken charges =   1.00000

 Dipole moment (field-independent basis, Debye):
    X=              0.0000    Y=             -0.0000    Z=              1.1626  Tot=              1.1626
 Quadrupole moment (field-independent basis, Debye-Ang):
   XX=            -49.9392   YY=            -28.1544   ZZ=            -30.7757
   XY=              0.0003   XZ=              0.0000   YZ=             -0.0000

 Normal termination of Gaussian 16 at Mon Jun 16 16:47:12 2025.
