 Gaussian 16, Revision B.01,
 Gaussian 16:  EM64L-G16RevB.01 20-Dec-2017

 ---------------------------------------
 # opt freq am1 pop=full gfinput gfprint
 ---------------------------------------

 ------------
 optimisation
 ------------
 Symbolic Z-matrix:
 Charge =  0 Multiplicity = 1

 SCF Done:  E(RAM1) =   3.26232759892     A.U. after   23 cycles
 SCF Done:  E(RAM1) =   2.57507672930     A.U. after   15 cycles
 SCF Done:  E(RAM1) =   1.52766136305     A.U. after   15 cycles
 SCF Done:  E(RAM1) =  0.555469366345     A.U. after   14 cycles
 SCF Done:  E(RAM1) =  0.280509967764     A.U. after   14 cycles
 SCF Done:  E(RAM1) =  0.200767318452     A.U. after   14 cycles
 SCF Done:  E(RAM1) =  0.134138029344     A.U. after   13 cycles
 SCF Done:  E(RAM1) =  0.126207886228     A.U. after   12 cycles
 SCF Done:  E(RAM1) =  0.120806999024     A.U. after   12 cycles
 SCF Done:  E(RAM1) =  0.120477234546     A.U. after   11 cycles
 SCF Done:  E(RAM1) =  0.120337875022     A.U. after   11 cycles
 SCF Done:  E(RAM1) =  0.120301952870     A.U. after   10 cycles
 SCF Done:  E(RAM1) =  0.120272285386     A.U. after   10 cycles
 SCF Done:  E(RAM1) =  0.120259604448     A.U. after   10 cycles
 SCF Done:  E(RAM1) =  0.120258337451     A.U. after    9 cycles
 Optimization completed.
    -- Stationary point found.
 Normal termination of Gaussian 16 at Thu Jun 12 23:28:58 2025.

 -------------------------------------------------------------
 #N Geom=AllCheck Guess=TCheck SCRF=Check GenChk RAM1/ZDO Freq
 -------------------------------------------------------------

 Structure from the checkpoint file:  "cyclooctatetraene.chk"
 ------------
 optimisation
 ------------
 Charge =  0 Multiplicity = 1

                         Standard orientation:
 ---------------------------------------------------------------------
 Center     Atomic      Atomic             Coordinates (Angstroms)
 Number     Number       Type             X           Y           Z
 ---------------------------------------------------------------------
      1          6           0        1.323157   -1.241821   -0.000000
      2          6           0        1.814992    0.000208   -0.000000
      3          6           0        1.241697    1.323193   -0.000000
      4          6           0        0.000238   -1.814769    0.000000
      5          6           0        0.000000    1.814294   -0.000000
      6          6           0       -1.242093   -1.323078    0.000000
      7          6           0       -1.323153    1.241978    0.000000
      8          6           0       -1.814895    0.000039    0.000000
      9          1           0        2.094809   -2.045712   -0.000000
     10          1           0        2.927627    0.058342   -0.000000
     11          1           0        2.045755    2.094769   -0.000000
     12          1           0        0.058602   -2.927425    0.000000
     13          1           0       -0.058307    2.927076   -0.000000
     14          1           0       -2.046043   -2.094561    0.000000
     15          1           0       -2.094549    2.046061    0.000000
     16          1           0       -2.927549   -0.058808    0.000000
 ---------------------------------------------------------------------

 SCF Done:  E(RAM1) =  0.120258337451     A.U. after    2 cycles

 The electronic state is 1-A'.
 Alpha  occ. eigenvalues --   -1.38806  -1.25793  -1.25789  -1.05872  -0.99410
 Alpha  occ. eigenvalues --   -0.77650  -0.77646  -0.65461  -0.57601  -0.57139
 Alpha  occ. eigenvalues --   -0.57138  -0.54462  -0.48482  -0.46528  -0.43530
 Alpha  occ. eigenvalues --   -0.43257  -0.43249  -0.40972  -0.40968  -0.29577
 Alpha virt. eigenvalues --   -0.03227   0.06078   0.06081   0.11139   0.13671
 Alpha virt. eigenvalues --    0.13674   0.13940   0.14365   0.14427   0.16128
 Alpha virt. eigenvalues --    0.16129   0.16173   0.19193   0.19285   0.19286

 Mulliken charges:
               1
     1  C   -0.111717
     2  C   -0.111714
     3  C   -0.111633
     4  C   -0.111679
     5  C   -0.111658
     6  C   -0.111738
     7  C   -0.111641
     8  C   -0.111682
     9  H    0.111634
    10  H    0.111740
    11  H    0.111667
    12  H    0.111713
    13  H    0.111621
    14  H    0.111679
    15  H    0.111703
    16  H    0.111703
 Sum of Mulliken charges =   0.00000

 Dipole moment (field-independent basis, Debye):
    X=             -0.0001    Y=             -0.0001    Z=              0.0000  Tot=              0.0001
 N-N= 1.830132058460D+02 E-N=-2.746248577005D+02  KE=-6.357439992402D+01
 Symmetry A'   KE=-5.128122237251D+01
 Symmetry A"   KE=-1.229317755151D+01
 Orbital energies and kinetic energies (alpha):
                                 1                 2
   1         O                -1.388062         -2.389604
   2         O                -1.257934         -2.241265
   3         O                -1.257895         -2.241233
   4         O                -1.058717         -2.015371
   5         O                -0.994101         -1.947292

  Exact polarizability: 100.369   0.013 100.351   0.000  -0.000  12.949
 Approx polarizability:  77.419   0.014  77.399  -0.000  -0.000   9.781

 ******    1 imaginary frequencies (negative Signs) ******

                      1                      2                      3
                     A"                     A"                     A"
 Frequencies --   -154.9154               193.4362               305.1909
 Red. masses --      2.2790                 3.1750                 1.9741
 Frc consts  --      0.0322                 0.0700                 0.1083
 IR Inten    --      0.0000                 0.0000                 0.0000

                      4                      5                      6
                     A"                     A'                     A'
 Frequencies --    305.4875               332.0524               361.5299
 Red. masses --      1.9738                 7.2347                 6.9767
 Frc consts  --      0.1085                 0.4700                 0.5373
 IR Inten    --      0.0000                 0.0000                 0.0000

                      7                      8                      9
                     A"                     A"                     A'
 Frequencies --    521.5384               679.1289               749.0906
 Red. masses --      1.9196                 1.0848                 6.1660
 Frc consts  --      0.3076                 0.2948                 2.0385
 IR Inten    --      0.0000               130.7025                 3.5481

                     10                     11                     12
                     A'                     A"                     A"
 Frequencies --    749.1992               816.1266               816.1646
 Red. masses --      6.1665                 1.2796                 1.2795
 Frc consts  --      2.0393                 0.5021                 0.5022
 IR Inten    --      3.5479                 0.0000                 0.0000

                     13                     14                     15
                     A"                     A'                     A'
 Frequencies --    915.9179               921.9392               937.2570
 Red. masses --      1.5704                 6.7178                 7.1062
 Frc consts  --      0.7762                 3.3642                 3.6779
 IR Inten    --      0.0000                 0.0000                 0.0000

                     16                     17                     18
                     A"                     A"                     A"
 Frequencies --    961.6432               997.5234               997.5755
 Red. masses --      1.3147                 1.6220                 1.6215
 Frc consts  --      0.7163                 0.9509                 0.9508
 IR Inten    --      0.0000                 0.0000                 0.0000

                     19                     20                     21
                     A"                     A'                     A'
 Frequencies --   1009.2087              1046.6011              1046.7376
 Red. masses --      1.8030                 2.1335                 2.1322
 Frc consts  --      1.0819                 1.3769                 1.3764
 IR Inten    --      0.0000                 1.0969                 1.0939

                     22                     23                     24
                     A'                     A'                     A'
 Frequencies --   1261.1862              1299.6577              1355.2657
 Red. masses --      1.2673                 1.0393                 1.0137
 Frc consts  --      1.1877                 1.0344                 1.0971
 IR Inten    --      0.0000                 0.0000                 0.0001

                     25                     26                     27
                     A'                     A'                     A'
 Frequencies --   1364.5603              1364.6890              1371.4707
 Red. masses --      1.0315                 1.0314                 1.2070
 Frc consts  --      1.1316                 1.1318                 1.3376
 IR Inten    --      1.0488                 1.0460                 0.0001

                     28                     29                     30
                     A'                     A'                     A'
 Frequencies --   1448.5034              1448.6059              1550.5787
 Red. masses --      1.6797                 1.6802                 3.5052
 Frc consts  --      2.0764                 2.0774                 4.9653
 IR Inten    --      2.6543                 2.6383                 0.0000

                     31                     32                     33
                     A'                     A'                     A'
 Frequencies --   1862.9886              1930.6255              1931.1525
 Red. masses --      8.4020                10.9861                10.9875
 Frc consts  --     17.1811                24.1263                24.1425
 IR Inten    --      0.0005                 2.2088                 2.2152

                     34                     35                     36
                     A'                     A'                     A'
 Frequencies --   2029.5319              3070.3399              3076.3135
 Red. masses --     10.8500                 1.0690                 1.0699
 Frc consts  --     26.3313                 5.9372                 5.9656
 IR Inten    --      0.0002                 0.0362                11.1229

                     37                     38                     39
                     A'                     A'                     A'
 Frequencies --   3076.5450              3085.2802              3087.0926
 Red. masses --      1.0699                 1.0714                 1.0732
 Frc consts  --      5.9666                 6.0086                 6.0261
 IR Inten    --     10.9032                 0.0167                 0.0529

                     40                     41                     42
                     A'                     A'                     A'
 Frequencies --   3097.3249              3097.5574              3104.0489
 Red. masses --      1.0787                 1.0787                 1.0826
 Frc consts  --      6.0970                 6.0979                 6.1460
 IR Inten    --     63.4672                63.3539                 0.0576

 - Thermochemistry -
 -------------------
 Temperature   298.150 Kelvin.  Pressure   1.00000 Atm.
 Atom     1 has atomic number  6 and mass  12.00000

 Molecular mass:   104.06260 amu.
 Principal axes and moments of inertia in atomic units:
                           1         2         3
     Eigenvalues --   687.82953 687.976501375.80603
           X            0.99935   0.03603   0.00000
           Y           -0.03603   0.99935   0.00000
           Z            0.00000  -0.00000   1.00000
 This molecule is an asymmetric top.
 Rotational symmetry number  1.
 Warning -- assumption of classical behavior for rotation
           may cause significant error
 Rotational temperatures (Kelvin)      0.12592     0.12590     0.06296
 Rotational constants (GHZ):           2.62382     2.62326     1.31177
    1 imaginary frequencies ignored.
 Zero-point vibrational energy     356347.6 (Joules/Mol)
                                   85.16912 (Kcal/Mol)
 Warning -- explicit consideration of   6 degrees of freedom as
           vibrations may cause significant error
 Vibrational temperatures:    278.31   439.10   439.53   477.75   520.16
          (Kelvin)            750.38   977.12  1077.77  1077.93  1174.22
                             1174.28  1317.80  1326.46  1348.50  1383.59
                             1435.21  1435.29  1452.03  1505.83  1506.02
                             1814.57  1869.92  1949.93  1963.30  1963.48
                             1973.24  2084.07  2084.22  2230.94  2680.43
                             2777.74  2778.50  2920.04  4417.53  4426.13
                             4426.46  4439.03  4441.64  4456.36  4456.69
                             4466.03

 Zero-point correction=                           0.135726 (Hartree/Particle)
 Thermal correction to Energy=                    0.141793
 Thermal correction to Enthalpy=                  0.142737
 Thermal correction to Gibbs Free Energy=         0.105637
 Sum of electronic and zero-point Energies=              0.255984
 Sum of electronic and thermal Energies=                 0.262051
 Sum of electronic and thermal Enthalpies=               0.262995
 Sum of electronic and thermal Free Energies=            0.225895

                     E (Thermal)             CV                S
                      KCal/Mol        Cal/Mol-Kelvin    Cal/Mol-Kelvin
 Total                   88.976             23.804             78.084
 Electronic               0.000              0.000              0.000
 Translational            0.889              2.981             39.837
 Rotational               0.889              2.981             27.967
 Vibrational             87.199             17.842             10.280
 Vibration     1          0.635              1.849              2.195
 Vibration     2          0.696              1.664              1.388
 Vibration     3          0.696              1.663              1.387
 Vibration     4          0.714              1.611              1.250
 Vibration     5          0.736              1.552              1.116
 Vibration     6          0.877              1.202              0.606

 Optimization completed.
    -- Stationary point found.
 Normal termination of Gaussian 16 at Thu Jun 12 23:28:58 2025.
