 Gaussian 16, Revision B.01,
 Gaussian 16:  EM64L-G16RevB.01 20-Dec-2017

 --------------------------------
 # opt freq am1 geom=connectivity
 --------------------------------

 -------------------
 Title Card Required
 -------------------
 Symbolic Z-matrix:
 Charge =  0 Multiplicity = 1

 SCF Done:  E(RAM1) =  0.110521455573     A.U. after   14 cycles
 SCF Done:  E(RAM1) =  0.110217601404     A.U. after   13 cycles
 SCF Done:  E(RAM1) =  0.108302432837     A.U. after   14 cycles
 SCF Done:  E(RAM1) =  0.130538923403     A.U. after   14 cycles
 SCF Done:  E(RAM1) =  0.104833218063     A.U. after   14 cycles
 SCF Done:  E(RAM1) =  0.985792035365E-01 A.U. after   14 cycles
 SCF Done:  E(RAM1) =  0.936587988953E-01 A.U. after   13 cycles
 SCF Done:  E(RAM1) =  0.902724460242E-01 A.U. after   12 cycles
 SCF Done:  E(RAM1) =  0.894811429689E-01 A.U. after   11 cycles
 SCF Done:  E(RAM1) =  0.894103519156E-01 A.U. after   10 cycles
 SCF Done:  E(RAM1) =  0.893806244128E-01 A.U. after   10 cycles
 SCF Done:  E(RAM1) =  0.893756730061E-01 A.U. after   10 cycles
 SCF Done:  E(RAM1) =  0.893749285960E-01 A.U. after    9 cycles
 SCF Done:  E(RAM1) =  0.893743269617E-01 A.U. after    9 cycles
 SCF Done:  E(RAM1) =  0.893737478259E-01 A.U. after    9 cycles
 SCF Done:  E(RAM1) =  0.893732774060E-01 A.U. after    9 cycles
 SCF Done:  E(RAM1) =  0.893728509758E-01 A.U. after    9 cycles
 SCF Done:  E(RAM1) =  0.893727024508E-01 A.U. after    8 cycles
 Optimization completed.
    -- Stationary point found.
 Normal termination of Gaussian 16 at Thu Jun 12 23:32:14 2025.

 -------------------------------------------------------------
 #N Geom=AllCheck Guess=TCheck SCRF=Check GenChk RAM1/ZDO Freq
 -------------------------------------------------------------

 Structure from the checkpoint file:  "meth_cyclooctatetraene.chk"
 -------------------
 Title Card Required
 -------------------
 Charge =  0 Multiplicity = 1

                         Standard orientation:
 ---------------------------------------------------------------------
 Center     Atomic      Atomic             Coordinates (Angstroms)
 Number     Number       Type             X           Y           Z
 ---------------------------------------------------------------------
      1          6           0       -1.303423   -1.336388    0.506094
      2          6           0       -1.955906   -0.176322    0.644632
      3          6           0       -1.801333    0.995309   -0.198930
      4          6           0       -0.321119   -1.646221   -0.517680
      5          6           0       -0.660516    1.650513   -0.443755
      6          6           0        0.817668   -0.986191   -0.754583
      7          6           0        0.649777    1.339854    0.096637
      8          6           0        1.314008    0.178989   -0.028333
      9          1           0       -1.526261   -2.177302    1.188160
     10          1           0       -2.715510   -0.064957    1.439991
     11          1           0       -2.747634    1.362544   -0.637344
     12          1           0       -0.568342   -2.539973   -1.120531
     13          1           0       -0.677238    2.552550   -1.083829
     14          1           0        1.500821   -1.341021   -1.548244
     15          1           0        1.123291    2.184949    0.630804
     16          6           0        2.677458    0.007408    0.540479
     17          1           0        2.686611   -0.851136    1.257466
     18          1           0        3.409753   -0.211522   -0.276376
     19          1           0        3.014821    0.924158    1.082532
 ---------------------------------------------------------------------

 SCF Done:  E(RAM1) =  0.893727024506E-01 A.U. after    2 cycles

 The electronic state is 1-A.
 Alpha  occ. eigenvalues --   -1.42207  -1.28484  -1.24431  -1.09685  -1.00890
 Alpha  occ. eigenvalues --   -0.91728  -0.77451  -0.75103  -0.63081  -0.58217
 Alpha  occ. eigenvalues --   -0.57491  -0.56395  -0.55682  -0.54213  -0.50499
 Alpha  occ. eigenvalues --   -0.48331  -0.46010  -0.44723  -0.42390  -0.40067
 Alpha  occ. eigenvalues --   -0.37658  -0.36850  -0.31746
 Alpha virt. eigenvalues --    0.00469   0.04942   0.05124   0.07851   0.14001
 Alpha virt. eigenvalues --    0.14690   0.14859   0.14913   0.16076   0.16285
 Alpha virt. eigenvalues --    0.16653   0.16790   0.17043   0.17920   0.18520

 Mulliken charges:
               1
     1  C   -0.126315
     2  C   -0.123216
     3  C   -0.128708
     4  C   -0.124084
     5  C   -0.119219
     6  C   -0.120066
     7  C   -0.130934
     8  C   -0.066826
     9  H    0.124986
    10  H    0.124900
    11  H    0.124542
    12  H    0.124815
    13  H    0.123953
    14  H    0.124759
    15  H    0.125500
    16  C   -0.180691
    17  H    0.086423
    18  H    0.081478
    19  H    0.078703
 Sum of Mulliken charges =  -0.00000

 Dipole moment (field-independent basis, Debye):
    X=              0.2039    Y=             -0.1157    Z=              0.0451  Tot=              0.2388
 N-N= 2.302626624501D+02 E-N=-3.566064477648D+02  KE=-7.227344424745D+01
  Exact polarizability:  97.007  -2.275  92.406  -9.593  -0.774  42.889
 Approx polarizability:  70.914  -1.602  71.611  -8.858  -0.461  29.223
 Calling FoFJK, ICntrl=    100127 FMM=F ISym2X=0 I1Cent= 0 IOpClX= 0 NMat=1 NMatS=1 NMatT=0.
 Full mass-weighted force constant matrix:
 Low frequencies ---   -3.4368   -2.8746   -1.9659    0.0132    0.1809    0.2105
 Low frequencies ---   78.2509  120.2291  199.6807
 Diagonal vibrational polarizability:
        2.5621903       2.2702919       6.1053737
 Harmonic frequencies (cm**-1), IR intensities (KM/Mole), Raman scattering

                      1                      2                      3
                      A                      A                      A
 Frequencies --     78.2509               120.2291               199.6807
 Red. masses --      1.0455                 2.8582                 2.7976
 Frc consts  --      0.0038                 0.0243                 0.0657
 IR Inten    --      0.2655                 0.2494                 0.2606

                      4                      5                      6
                      A                      A                      A
 Frequencies --    236.4014               279.6457               305.0839
 Red. masses --      3.2323                 3.6729                 3.3497
 Frc consts  --      0.1064                 0.1692                 0.1837
 IR Inten    --      0.2931                 1.3836                 0.2666

                      7                      8                      9
                      A                      A                      A
 Frequencies --    373.0781               408.3348               473.9193
 Red. masses --      2.1652                 2.5510                 2.5135
 Frc consts  --      0.1776                 0.2506                 0.3326
 IR Inten    --      0.1630                 0.8506                 5.7492

                     10                     11                     12
                      A                      A                      A
 Frequencies --    592.0259               644.3683               678.2450
 Red. masses --      2.5190                 2.3941                 2.4066
 Frc consts  --      0.5202                 0.5857                 0.6523
 IR Inten    --      3.6706                 9.6100                18.4507

                     13                     14                     15
                      A                      A                      A
 Frequencies --    791.9299               816.9675               875.4969
 Red. masses --      1.3983                 2.1051                 1.5836
 Frc consts  --      0.5167                 0.8278                 0.7152
 IR Inten    --     69.2376                 9.4987                 5.9324

                     16                     17                     18
                      A                      A                      A
 Frequencies --    883.6594               931.4633               974.2153
 Red. masses --      1.8782                 1.7703                 1.8663
 Frc consts  --      0.8641                 0.9050                 1.0436
 IR Inten    --     20.1760                10.0078                 0.3636

                     19                     20                     21
                      A                      A                      A
 Frequencies --    986.1305               995.8824              1017.7235
 Red. masses --      1.5852                 1.6656                 2.3830
 Frc consts  --      0.9082                 0.9733                 1.4542
 IR Inten    --      3.7216                 1.3844                 0.4169

                     22                     23                     24
                      A                      A                      A
 Frequencies --   1047.9012              1070.5384              1103.1548
 Red. masses --      1.4600                 1.6201                 2.2209
 Frc consts  --      0.9446                 1.0939                 1.5924
 IR Inten    --      5.5179                 2.4280                 1.3614

                     25                     26                     27
                      A                      A                      A
 Frequencies --   1130.7289              1191.1070              1231.5602
 Red. masses --      1.5874                 1.2138                 1.0504
 Frc consts  --      1.1958                 1.0146                 0.9387
 IR Inten    --      0.3150                 0.2050                 1.0068

                     28                     29                     30
                      A                      A                      A
 Frequencies --   1235.9436              1246.1968              1321.2852
 Red. masses --      1.0441                 1.0535                 1.3730
 Frc consts  --      0.9397                 0.9640                 1.4123
 IR Inten    --      0.5562                 0.1122                 0.0876

                     31                     32                     33
                      A                      A                      A
 Frequencies --   1340.2036              1381.2266              1385.0851
 Red. masses --      1.6575                 1.0970                 1.0679
 Frc consts  --      1.7541                 1.2331                 1.2070
 IR Inten    --      0.0912                 1.9951                 2.2043

                     34                     35                     36
                      A                      A                      A
 Frequencies --   1420.7775              1442.0676              1475.6966
 Red. masses --      2.2186                 1.3216                 3.7182
 Frc consts  --      2.6386                 1.6193                 4.7707
 IR Inten    --      1.6942                 0.5052                 2.0194

                     37                     38                     39
                      A                      A                      A
 Frequencies --   1537.1019              1849.0664              1899.3703
 Red. masses --      4.7062                 9.0974                10.6397
 Frc consts  --      6.5513                18.3261                22.6152
 IR Inten    --      0.6140                 1.8044                 1.1626

                     40                     41                     42
                      A                      A                      A
 Frequencies --   1903.9482              1949.9612              3047.1550
 Red. masses --     10.7821                10.8691                 1.0896
 Frc consts  --     23.0283                24.3499                 5.9608
 IR Inten    --      2.0424                 0.2199                 1.5162

                     43                     44                     45
                      A                      A                      A
 Frequencies --   3057.9888              3135.6941              3136.4136
 Red. masses --      1.0912                 1.0727                 1.0722
 Frc consts  --      6.0121                 6.2143                 6.2141
 IR Inten    --      1.1350                 5.7741                30.1941

                     46                     47                     48
                      A                      A                      A
 Frequencies --   3139.6122              3139.9926              3148.0608
 Red. masses --      1.0758                 1.0721                 1.0287
 Frc consts  --      6.2478                 6.2277                 6.0068
 IR Inten    --     27.6173                20.5659                 1.7538

                     49                     50                     51
                      A                      A                      A
 Frequencies --   3148.8382              3149.6171              3154.4617
 Red. masses --      1.0790                 1.0814                 1.0841
 Frc consts  --      6.3036                 6.3206                 6.3555
 IR Inten    --     22.1458                36.2766                14.5594

 - Thermochemistry -
 -------------------
 Temperature   298.150 Kelvin.  Pressure   1.00000 Atm.
 Atom     1 has atomic number  6 and mass  12.00000

 Molecular mass:   118.07825 amu.
 Principal axes and moments of inertia in atomic units:
                           1         2         3
     Eigenvalues --   703.780321135.287501577.68652
           X            0.99998  -0.00258   0.00612
           Y            0.00258   1.00000  -0.00024
           Z           -0.00612   0.00025   0.99998
 This molecule is an asymmetric top.
 Rotational symmetry number  1.
 Warning -- assumption of classical behavior for rotation
           may cause significant error
 Rotational temperatures (Kelvin)      0.12307     0.07629     0.05490
 Rotational constants (GHZ):           2.56435     1.58968     1.14392
 Zero-point vibrational energy     431155.0 (Joules/Mol)
                                  103.04852 (Kcal/Mol)
 Warning -- explicit consideration of  10 degrees of freedom as
           vibrations may cause significant error
 Vibrational temperatures:    112.59   172.98   287.30   340.13   402.35
          (Kelvin)            438.95   536.78   587.50   681.86   851.79
                              927.10   975.84  1139.41  1175.43  1259.64
                             1271.39  1340.17  1401.68  1418.82  1432.85
                             1464.28  1507.70  1540.27  1587.19  1626.87
                             1713.74  1771.94  1778.25  1793.00  1901.03
                             1928.25  1987.28  1992.83  2044.18  2074.81
                             2123.20  2211.55  2660.39  2732.77  2739.36
                             2805.56  4384.18  4399.76  4511.56  4512.60
                             4517.20  4517.75  4529.36  4530.48  4531.60
                             4538.57

 Zero-point correction=                           0.164218 (Hartree/Particle)
 Thermal correction to Energy=                    0.172455
 Thermal correction to Enthalpy=                  0.173399
 Thermal correction to Gibbs Free Energy=         0.131378
 Sum of electronic and zero-point Energies=              0.253591
 Sum of electronic and thermal Energies=                 0.261828
 Sum of electronic and thermal Enthalpies=               0.262772
 Sum of electronic and thermal Free Energies=            0.220750

                     E (Thermal)             CV                S
                      KCal/Mol        Cal/Mol-Kelvin    Cal/Mol-Kelvin
 Total                  108.217             31.168             88.442
 Electronic               0.000              0.000              0.000
 Translational            0.889              2.981             40.213
 Rotational               0.889              2.981             28.624
 Vibrational            106.440             25.207             19.605
 Vibration     1          0.600              1.964              3.934
 Vibration     2          0.609              1.932              3.097
 Vibration     3          0.638              1.840              2.136
 Vibration     4          0.655              1.785              1.830
 Vibration     5          0.680              1.711              1.536
 Vibration     6          0.696              1.664              1.389
 Vibration     7          0.744              1.527              1.067
 Vibration     8          0.773              1.452              0.933
 Vibration     9          0.831              1.308              0.727
 Vibration    10          0.950              1.049              0.464

 Optimization completed.
    -- Stationary point found.
 Normal termination of Gaussian 16 at Thu Jun 12 23:32:15 2025.
