 Gaussian 16, Revision B.01,
 Gaussian 16:  EM64L-G16RevB.01 20-Dec-2017

 -----------------------------------------
 # opt freq am1 pop=full geom=connectivity
 -----------------------------------------

 -------------------
 Title Card Required
 -------------------
 Symbolic Z-matrix:
 Charge =  0 Multiplicity = 1

 SCF Done:  E(RAM1) =  0.189285630142     A.U. after   14 cycles
 SCF Done:  E(RAM1) =  0.137362828207     A.U. after   12 cycles
 SCF Done:  E(RAM1) =  0.104932025052     A.U. after   12 cycles
 SCF Done:  E(RAM1) =  0.102681245640     A.U. after   12 cycles
 SCF Done:  E(RAM1) =  0.100211324482     A.U. after   11 cycles
 SCF Done:  E(RAM1) =  0.997817454976E-01 A.U. after   11 cycles
 SCF Done:  E(RAM1) =  0.995004223311E-01 A.U. after   11 cycles
 SCF Done:  E(RAM1) =  0.994339229633E-01 A.U. after   10 cycles
 SCF Done:  E(RAM1) =  0.993935982220E-01 A.U. after   10 cycles
 SCF Done:  E(RAM1) =  0.993629875233E-01 A.U. after   10 cycles
 SCF Done:  E(RAM1) =  0.962069165524E-01 A.U. after   12 cycles
 SCF Done:  E(RAM1) =  0.958364937180E-01 A.U. after   12 cycles
 SCF Done:  E(RAM1) =  0.956127801147E-01 A.U. after   11 cycles
 SCF Done:  E(RAM1) =  0.955378506208E-01 A.U. after   11 cycles
 SCF Done:  E(RAM1) =  0.955251089898E-01 A.U. after   10 cycles
 SCF Done:  E(RAM1) =  0.955221326655E-01 A.U. after   10 cycles
 SCF Done:  E(RAM1) =  0.955216398488E-01 A.U. after    9 cycles
 SCF Done:  E(RAM1) =  0.955214956127E-01 A.U. after    9 cycles
 SCF Done:  E(RAM1) =  0.955214876052E-01 A.U. after    8 cycles
 Optimization completed.
    -- Stationary point found.
 Normal termination of Gaussian 16 at Thu Jun 12 23:37:27 2025.

 -------------------------------------------------------------
 #N Geom=AllCheck Guess=TCheck SCRF=Check GenChk RAM1/ZDO Freq
 -------------------------------------------------------------

 Structure from the checkpoint file:  "meth_cyclooctatetraene_isomer_opt.chk"
 -------------------
 Title Card Required
 -------------------
 Charge =  0 Multiplicity = 1

                         Standard orientation:
 ---------------------------------------------------------------------
 Center     Atomic      Atomic             Coordinates (Angstroms)
 Number     Number       Type             X           Y           Z
 ---------------------------------------------------------------------
      1          6           0        1.643182    1.097872    0.358766
      2          6           0        2.127737   -0.138042    0.170825
      3          6           0        1.495908   -1.225988   -0.545959
      4          6           0        0.460722    1.718137   -0.191933
      5          6           0        0.243756   -1.640562   -0.317597
      6          6           0       -0.811712    1.312102   -0.306629
      7          6           0       -0.643933   -1.018733    0.698524
      8          6           0       -1.461707    0.078689    0.101970
      9          1           0        2.257222    1.807802    0.949901
     10          1           0        3.119950   -0.391865    0.589965
     11          1           0        2.134148   -1.736012   -1.287907
     12          1           0        0.683312    2.741985   -0.564408
     13          1           0       -0.186282   -2.483908   -0.880045
     14          1           0       -1.517354    2.034757   -0.768678
     15          6           0       -2.788419   -0.067782   -0.049266
     16          1           0       -3.422820    0.714559   -0.484643
     17          1           0       -3.315268   -0.980876    0.254581
     18          1           0       -0.030607   -0.594368    1.542110
     19          1           0       -1.315511   -1.806234    1.136922
 ---------------------------------------------------------------------

 SCF Done:  E(RAM1) =  0.955214876047E-01 A.U. after    2 cycles

 The electronic state is 1-A.
 Alpha  occ. eigenvalues --   -1.42602  -1.28853  -1.24687  -1.09149  -1.01862
 Alpha  occ. eigenvalues --   -0.90200  -0.77766  -0.73832  -0.63707  -0.61815
 Alpha  occ. eigenvalues --   -0.58280  -0.55809  -0.55378  -0.52238  -0.50309
 Alpha  occ. eigenvalues --   -0.47660  -0.45254  -0.44454  -0.42990  -0.40894
 Alpha  occ. eigenvalues --   -0.39565  -0.35980  -0.31702
 Alpha virt. eigenvalues --    0.00127   0.02911   0.06803   0.08675   0.13664
 Alpha virt. eigenvalues --    0.14190   0.14674   0.15121   0.15434   0.15480
 Alpha virt. eigenvalues --    0.16336   0.16942   0.17534   0.17819   0.18351

 Mulliken charges:
               1
     1  C   -0.124913
     2  C   -0.123017
     3  C   -0.142341
     4  C   -0.121249
     5  C   -0.138386
     6  C   -0.113682
     7  C   -0.105531
     8  C   -0.061755
     9  H    0.119904
    10  H    0.123918
    11  H    0.128191
    12  H    0.117878
    13  H    0.124286
    14  H    0.116511
    15  C   -0.217440
    16  H    0.112971
    17  H    0.114131
    18  H    0.102358
    19  H    0.088166
 Sum of Mulliken charges =  -0.00000

 Dipole moment (field-independent basis, Debye):
    X=              0.0950    Y=             -0.0049    Z=              0.0890  Tot=              0.1303
 N-N= 2.311156821810D+02 E-N=-3.582435316886D+02  KE=-7.229707532077D+01
 Orbital energies and kinetic energies (alpha):
                                 1                 2
   1         O                -1.426016         -2.425252
   2         O                -1.288526         -2.287408
   3         O                -1.246870         -2.227323
   4         O                -1.091491         -2.051438
   5         O                -1.018618         -1.941227
   6         O                -0.901998         -1.819738
   7         O                -0.777663         -1.666512

  Exact polarizability: 135.891   8.283  81.812   4.592   1.245  34.837
 Approx polarizability:  98.915   9.325  58.305   3.374   1.945  24.062

                      1                      2                      3
                      A                      A                      A
 Frequencies --     47.5319               202.8599               260.0342
 Red. masses --      3.0398                 2.6067                 2.8721
 Frc consts  --      0.0040                 0.0632                 0.1144
 IR Inten    --      0.0330                 0.3046                 0.3115

                      4                      5                      6
                      A                      A                      A
 Frequencies --    262.8108               293.3329               372.1842
 Red. masses --      3.3316                 4.3836                 2.4091
 Frc consts  --      0.1356                 0.2222                 0.1966
 IR Inten    --      0.6140                 1.0822                 0.0863

                      7                      8                      9
                      A                      A                      A
 Frequencies --    456.0764               469.5183               556.9248
 Red. masses --      2.0903                 2.3736                 1.8324
 Frc consts  --      0.2562                 0.3083                 0.3349
 IR Inten    --      0.2155                 3.8906                 4.9856

                     10                     11                     12
                      A                      A                      A
 Frequencies --    618.3901               643.3688               678.1985
 Red. masses --      1.2044                 2.4635                 2.3263
 Frc consts  --      0.2714                 0.6008                 0.6304
 IR Inten    --      2.0183                 8.4014                24.1835

                     13                     14                     15
                      A                      A                      A
 Frequencies --    800.7588               806.9270               875.8263
 Red. masses --      1.7504                 1.8859                 1.6278
 Frc consts  --      0.6613                 0.7235                 0.7357
 IR Inten    --     28.1679                37.0819                 6.2143

                     16                     17                     18
                      A                      A                      A
 Frequencies --    889.2237               965.1491               975.0886
 Red. masses --      2.0852                 2.0040                 1.5629
 Frc consts  --      0.9715                 1.0999                 0.8755
 IR Inten    --     11.7434                 2.5291                 0.2975

                     19                     20                     21
                      A                      A                      A
 Frequencies --    984.5456              1001.7856              1009.8954
 Red. masses --      1.5150                 1.6096                 2.2257
 Frc consts  --      0.8652                 0.9517                 1.3374
 IR Inten    --      1.1158                 1.1549                 4.0412

                     22                     23                     24
                      A                      A                      A
 Frequencies --   1040.3445              1051.5074              1093.1815
 Red. masses --      1.4374                 1.8558                 2.2618
 Frc consts  --      0.9166                 1.2090                 1.5925
 IR Inten    --     38.9126                13.8729                 0.8642

                     25                     26                     27
                      A                      A                      A
 Frequencies --   1115.4462              1163.4488              1186.6539
 Red. masses --      1.4038                 1.2454                 1.2514
 Frc consts  --      1.0291                 0.9932                 1.0382
 IR Inten    --      0.3076                 0.3950                 0.5198

                     28                     29                     30
                      A                      A                      A
 Frequencies --   1254.9299              1260.2995              1290.9125
 Red. masses --      1.1504                 1.0863                 1.0805
 Frc consts  --      1.0674                 1.0166                 1.0609
 IR Inten    --      0.5203                 0.7434                 0.1818

                     31                     32                     33
                      A                      A                      A
 Frequencies --   1343.5851              1383.2817              1402.8126
 Red. masses --      1.2624                 1.4070                 1.2181
 Frc consts  --      1.3427                 1.5863                 1.4123
 IR Inten    --      0.3390                 0.2281                 1.1505

                     34                     35                     36
                      A                      A                      A
 Frequencies --   1417.7434              1445.2800              1496.2556
 Red. masses --      1.5353                 1.3305                 3.5736
 Frc consts  --      1.8182                 1.6374                 4.7138
 IR Inten    --      1.5688                 1.0967                 1.0976

                     37                     38                     39
                      A                      A                      A
 Frequencies --   1540.9620              1836.8593              1864.2562
 Red. masses --      5.1844                 9.1229                 9.2981
 Frc consts  --      7.2533                18.1358                19.0395
 IR Inten    --      0.4887                 0.2877                 0.0893

                     40                     41                     42
                      A                      A                      A
 Frequencies --   1893.9714              1929.0372              3001.5036
 Red. masses --     10.6025                11.0477                 1.0899
 Frc consts  --     22.4080                24.2216                 5.7851
 IR Inten    --      0.2972                 0.8216                 3.5989

                     43                     44                     45
                      A                      A                      A
 Frequencies --   3073.2047              3096.5463              3113.8645
 Red. masses --      1.0488                 1.0714                 1.0765
 Frc consts  --      5.8361                 6.0528                 6.1497
 IR Inten    --      2.0174                19.5139                 9.3756

                     46                     47                     48
                      A                      A                      A
 Frequencies --   3119.6166              3140.3913              3158.5038
 Red. masses --      1.0749                 1.0788                 1.0750
 Frc consts  --      6.1637                 6.2684                 6.3189
 IR Inten    --     34.0614                25.5593                29.9957

                     49                     50                     51
                      A                      A                      A
 Frequencies --   3177.8253              3179.1129              3216.9756
 Red. masses --      1.0829                 1.1051                 1.0534
 Frc consts  --      6.4430                 6.5807                 6.4228
 IR Inten    --     20.3651                 7.6915                51.9048

 - Thermochemistry -
 -------------------
 Temperature   298.150 Kelvin.  Pressure   1.00000 Atm.
 Atom     1 has atomic number  6 and mass  12.00000

 Molecular mass:   118.07825 amu.
 Principal axes and moments of inertia in atomic units:
                           1         2         3
     Eigenvalues --   664.696361137.528001638.82530
           X            0.99991   0.01214   0.00523
           Y           -0.01211   0.99991  -0.00540
           Z           -0.00529   0.00534   0.99997
 This molecule is an asymmetric top.
 Rotational symmetry number  1.
 Warning -- assumption of classical behavior for rotation
           may cause significant error
 Rotational temperatures (Kelvin)      0.13031     0.07614     0.05285
 Rotational constants (GHZ):           2.71514     1.58655     1.10124
 Zero-point vibrational energy     433399.5 (Joules/Mol)
                                  103.58498 (Kcal/Mol)
 Warning -- explicit consideration of  10 degrees of freedom as
           vibrations may cause significant error
 Vibrational temperatures:     68.39   291.87   374.13   378.13   422.04
          (Kelvin)            535.49   656.19   675.53   801.29   889.73
                              925.66   975.78  1152.11  1160.99  1260.12
                             1279.39  1388.63  1402.94  1416.54  1441.35
                             1453.01  1496.82  1512.88  1572.84  1604.88
                             1673.94  1707.33  1805.56  1813.29  1857.34
                             1933.12  1990.23  2018.33  2039.82  2079.44
                             2152.78  2217.10  2642.83  2682.25  2725.00
                             2775.45  4318.49  4421.66  4455.24  4480.16
                             4488.43  4518.32  4544.38  4572.18  4574.03
                             4628.51

 Zero-point correction=                           0.165073 (Hartree/Particle)
 Thermal correction to Energy=                    0.172811
 Thermal correction to Enthalpy=                  0.173755
 Thermal correction to Gibbs Free Energy=         0.132589
 Sum of electronic and zero-point Energies=              0.260595
 Sum of electronic and thermal Energies=                 0.268333
 Sum of electronic and thermal Enthalpies=               0.269277
 Sum of electronic and thermal Free Energies=            0.228111

                     E (Thermal)             CV                S
                      KCal/Mol        Cal/Mol-Kelvin    Cal/Mol-Kelvin
 Total                  108.441             30.271             86.641
 Electronic               0.000              0.000              0.000
 Translational            0.889              2.981             40.213
 Rotational               0.889              2.981             28.607
 Vibrational            106.663             24.310             17.821
 Vibration     1          0.595              1.979              4.918
 Vibration     2          0.639              1.836              2.107
 Vibration     3          0.668              1.746              1.662
 Vibration     4          0.670              1.741              1.643
 Vibration     5          0.688              1.686              1.455
 Vibration     6          0.744              1.529              1.071
 Vibration     7          0.814              1.347              0.778
 Vibration     8          0.827              1.318              0.739
 Vibration     9          0.912              1.125              0.530
 Vibration    10          0.978              0.993              0.419

 Optimization completed.
    -- Stationary point found.
 Normal termination of Gaussian 16 at Thu Jun 12 23:37:27 2025.
