 Gaussian 16, Revision B.01,
 Gaussian 16:  EM64L-G16RevB.01 20-Dec-2017

 ---------------------------------------------
 #p hf/3-21g opt freq gfinput gfprint pop=full
 ---------------------------------------------

 ------------
 optimisation
 ------------
 Symbolic Z-matrix:
 Charge =  0 Multiplicity = 1

 SCF Done:  E(RHF) =  -229.415628830     A.U. after   11 cycles
 SCF Done:  E(RHF) =  -229.419383955     A.U. after   10 cycles
 SCF Done:  E(RHF) =  -229.419445102     A.U. after    9 cycles
 Optimization completed.
    -- Stationary point found.
 Normal termination of Gaussian 16 at Mon Jun  9 11:31:58 2025.

 --------------------------------------------------------------
 #P Geom=AllCheck Guess=TCheck SCRF=Check GenChk RHF/3-21G Freq
 --------------------------------------------------------------

 Structure from the checkpoint file:  "C6H6.chk"
 ------------
 optimisation
 ------------
 Charge =  0 Multiplicity = 1

                         Standard orientation:
 ---------------------------------------------------------------------
 Center     Atomic      Atomic             Coordinates (Angstroms)
 Number     Number       Type             X           Y           Z
 ---------------------------------------------------------------------
      1          6           0       -0.270486    1.358089    0.000002
      2          6           0       -1.311414    0.444725    0.000032
      3          6           0       -1.040905   -0.913289   -0.000003
      4          6           0        0.270563   -1.358074    0.000008
      5          6           0        1.311389   -0.444800    0.000009
      6          6           0        1.040853    0.913349   -0.000021
      7          1           0       -0.479952    2.409366   -0.000004
      8          1           0       -2.326544    0.789071   -0.000056
      9          1           0       -1.846599   -1.620339   -0.000064
     10          1           0        0.479907   -2.409375   -0.000046
     11          1           0        2.326559   -0.789031    0.000043
     12          1           0        1.846630    1.620302   -0.000028
 ---------------------------------------------------------------------

 SCF Done:  E(RHF) =  -229.419445102     A.U. after    1 cycles

 The electronic state is 1-A.
 Alpha  occ. eigenvalues --  -11.17551 -11.17528 -11.17528 -11.17506 -11.17506
 Alpha  occ. eigenvalues --  -11.17450  -1.15725  -1.01646  -1.01646  -0.82563
 Alpha  occ. eigenvalues --   -0.82563  -0.71991  -0.63960  -0.62485  -0.59282
 Alpha  occ. eigenvalues --   -0.59281  -0.50839  -0.49146  -0.49146  -0.33896
 Alpha  occ. eigenvalues --   -0.33895
 Alpha virt. eigenvalues --    0.15120   0.15120   0.25744   0.32456   0.32456
 Alpha virt. eigenvalues --    0.37203   0.37203   0.37539   0.37567   0.50848
 Alpha virt. eigenvalues --    0.50848   0.52419   0.52420   0.81325   0.83493

 Mulliken charges:
               1
     1  C   -0.239317
     2  C   -0.239320
     3  C   -0.239319
     4  C   -0.239317
     5  C   -0.239320
     6  C   -0.239319
     7  H    0.239318
     8  H    0.239319
     9  H    0.239318
    10  H    0.239318
    11  H    0.239319
    12  H    0.239319
 Sum of Mulliken charges =  -0.00000

 Dipole moment (field-independent basis, Debye):
    X=             -0.0000    Y=             -0.0000    Z=             -0.0001  Tot=              0.0001
 Quadrupole moment (field-independent basis, Debye-Ang):
   XX=            -31.4698   YY=            -31.4699   ZZ=            -40.9867
   XY=              0.0000   XZ=              0.0003   YZ=              0.0001

  Exact polarizability:  64.897   0.000  64.896   0.000   0.000  14.302
 Approx polarizability:  64.037   0.000  64.036  -0.000  -0.000  13.842

                      1                      2                      3
                      A                      A                      A
 Frequencies --    466.3882               466.3937               698.1835
 Red. masses --      2.7479                 2.7479                 6.1641
 Frc consts  --      0.3522                 0.3522                 1.7703
 IR Inten    --      0.0000                 0.0000                 0.0000
 Raman Activ --      0.0000                 0.0000                 3.5643

                      4                      5                      6
                      A                      A                      A
 Frequencies --    698.1862               783.5049               819.7777
 Red. masses --      6.1641                 1.0848                 2.6945
 Frc consts  --      1.7704                 0.3924                 1.0669
 IR Inten    --      0.0000               152.5107                 0.0000
 Raman Activ --      3.5644                 0.0000                 0.0000

                      7                      8                      9
                      A                      A                      A
 Frequencies --    994.5061               994.5118              1077.6843
 Red. masses --      1.2466                 1.2466                 5.9925
 Frc consts  --      0.7264                 0.7264                 4.1005
 IR Inten    --      0.0000                 0.0000                 0.0000
 Raman Activ --      5.0011                 5.0011                53.6914

                     10                     11                     12
                      A                      A                      A
 Frequencies --   1136.2011              1136.2149              1147.9039
 Red. masses --      1.8813                 1.8813                 6.4872
 Frc consts  --      1.4309                 1.4309                 5.0364
 IR Inten    --      3.6494                 3.6495                 0.0000
 Raman Activ --      0.0000                 0.0000                 0.0000

                     13                     14                     15
                      A                      A                      A
 Frequencies --   1155.8855              1155.8907              1199.6058
 Red. masses --      1.4052                 1.4052                 1.4196
 Frc consts  --      1.1061                 1.1061                 1.2036
 IR Inten    --      0.0000                 0.0000                 0.0000
 Raman Activ --      0.0000                 0.0000                 0.0000

                     16                     17                     18
                      A                      A                      A
 Frequencies --   1233.6390              1322.6324              1322.6372
 Red. masses --      3.4062                 1.1858                 1.1858
 Frc consts  --      3.0542                 1.2222                 1.2222
 IR Inten    --      0.0000                 0.0000                 0.0000
 Raman Activ --      0.0003                 6.2903                 6.2903

                     19                     20                     21
                      A                      A                      A
 Frequencies --   1364.7876              1543.6779              1657.6153
 Red. masses --      1.2788                 1.2466                 1.8099
 Frc consts  --      1.4034                 1.7502                 2.9301
 IR Inten    --      0.0000                 0.0000                15.9861
 Raman Activ --      0.0000                 0.0000                 0.0000

                     22                     23                     24
                      A                      A                      A
 Frequencies --   1657.6204              1762.8763              1762.8934
 Red. masses --      1.8100                 4.4090                 4.4092
 Frc consts  --      2.9302                 8.0730                 8.0735
 IR Inten    --     15.9854                 0.0000                 0.0000
 Raman Activ --      0.0000                14.1373                14.1388

                     25                     26                     27
                      A                      A                      A
 Frequencies --   3346.6941              3356.6431              3356.6543
 Red. masses --      1.0853                 1.0884                 1.0884
 Frc consts  --      7.1618                 7.2251                 7.2251
 IR Inten    --      0.0000                 0.0000                 0.0000
 Raman Activ --      0.0000               118.9873               118.9856

                     28                     29                     30
                      A                      A                      A
 Frequencies --   3374.9193              3374.9296              3389.3472
 Red. masses --      1.0949                 1.0949                 1.1005
 Frc consts  --      7.3476                 7.3477                 7.4484
 IR Inten    --     38.6084                38.6089                 0.0000
 Raman Activ --      0.0000                 0.0000               319.9294

 - Thermochemistry -
 -------------------
 Temperature   298.150 Kelvin.  Pressure   1.00000 Atm.
 Atom     1 has atomic number  6 and mass  12.00000

 Molecular mass:    78.04695 amu.
 Principal axes and moments of inertia in atomic units:
                           1         2         3
     Eigenvalues --   311.68367 311.68706 623.37073
           X            0.99967   0.02567   0.00000
           Y           -0.02567   0.99967   0.00000
           Z           -0.00000  -0.00000   1.00000
 This molecule is an asymmetric top.
 Rotational symmetry number  1.
 Rotational temperatures (Kelvin)      0.27789     0.27789     0.13894
 Rotational constants (GHZ):           5.79030     5.79023     2.89513
 Zero-point vibrational energy     285658.7 (Joules/Mol)
                                   68.27407 (Kcal/Mol)
 Warning -- explicit consideration of   2 degrees of freedom as
           vibrations may cause significant error
 Vibrational temperatures:    671.03   671.04  1004.53  1004.53  1127.29
          (Kelvin)           1179.48  1430.87  1430.88  1550.55  1634.74
                             1634.76  1651.58  1663.06  1663.07  1725.97
                             1774.93  1902.97  1902.98  1963.62  2221.01
                             2384.94  2384.95  2536.39  2536.41  4815.15
                             4829.46  4829.48  4855.76  4855.77  4876.51

 Zero-point correction=                           0.108802 (Hartree/Particle)
 Thermal correction to Energy=                    0.112797
 Thermal correction to Enthalpy=                  0.113741
 Thermal correction to Gibbs Free Energy=         0.081524
 Sum of electronic and zero-point Energies=           -229.310643
 Sum of electronic and thermal Energies=              -229.306648
 Sum of electronic and thermal Enthalpies=            -229.305704
 Sum of electronic and thermal Free Energies=         -229.337921

                     E (Thermal)             CV                S
                      KCal/Mol        Cal/Mol-Kelvin    Cal/Mol-Kelvin
 Total                   70.781             14.844             67.806
 Electronic               0.000              0.000              0.000
 Translational            0.889              2.981             38.979
 Rotational               0.889              2.981             25.607
 Vibrational             69.004              8.882              3.220
 Vibration     1          0.824              1.325              0.748
 Vibration     2          0.824              1.325              0.748

 Optimization completed.
    -- Stationary point found.
 Normal termination of Gaussian 16 at Mon Jun  9 11:32:03 2025.
