 Gaussian 16, Revision B.01,
 Gaussian 16:  EM64L-G16RevB.01 20-Dec-2017

 --------------------------------------
 # hf/3-21g* pop=full geom=connectivity
 --------------------------------------

 ------------
 Optimisation
 ------------
 Symbolic Z-matrix:
 Charge =  0 Multiplicity = 1

                         Standard orientation:
 ---------------------------------------------------------------------
 Center     Atomic      Atomic             Coordinates (Angstroms)
 Number     Number       Type             X           Y           Z
 ---------------------------------------------------------------------
      1          6           0       -1.200015   -1.157296   -0.000220
      2          6           0       -1.844163    0.021786   -0.000477
      3          6           0       -1.104571    1.264717    0.000077
      4          6           0        0.242889    1.263666    0.000431
      5          6           0        1.016581    0.031559    0.000127
      6          6           0        0.277921   -1.268860    0.000636
      7          1           0       -1.745951   -2.113015   -0.000498
      8          1           0       -2.942473    0.083090   -0.001108
      9          1           0       -1.680742    2.201706    0.000163
     10          1           0        0.814829    2.205160    0.000884
     11          6           0        2.358668    0.050651   -0.000601
     12          1           0        2.932598    0.985311   -0.000895
     13          1           0        2.955421   -0.869624   -0.000972
     14          1           0        0.590719   -1.864274    0.905142
     15          1           0        0.591735   -1.865694   -0.902553
 ---------------------------------------------------------------------

 SCF Done:  E(RHF) =  -268.173790191     A.U. after   14 cycles

 The electronic state is 1-A.
 Alpha  occ. eigenvalues --  -11.18879 -11.18344 -11.18219 -11.18129 -11.17921
 Alpha  occ. eigenvalues --  -11.17630 -11.16102  -1.14773  -1.04857  -1.01991
 Alpha  occ. eigenvalues --   -0.91771  -0.82663  -0.77347  -0.68742  -0.64135
 Alpha  occ. eigenvalues --   -0.63636  -0.59389  -0.58483  -0.56390  -0.53568
 Alpha  occ. eigenvalues --   -0.48986  -0.45946  -0.44628  -0.39142  -0.27359
 Alpha virt. eigenvalues --    0.09462   0.20704   0.25861   0.28538   0.29319
 Alpha virt. eigenvalues --    0.30498   0.32770   0.35406   0.36125   0.37158
 Alpha virt. eigenvalues --    0.39266   0.44278   0.47066   0.52742   0.54274

 Mulliken charges:
               1
     1  C   -0.171480
     2  C   -0.254383
     3  C   -0.243357
     4  C   -0.200128
     5  C   -0.059548
     6  C   -0.487000
     7  H    0.228334
     8  H    0.232913
     9  H    0.237032
    10  H    0.234006
    11  C   -0.399406
    12  H    0.203561
    13  H    0.201151
    14  H    0.239171
    15  H    0.239134
 Sum of Mulliken charges =  -0.00000

 Dipole moment (field-independent basis, Debye):
    X=             -0.2791    Y=             -0.4294    Z=              0.0005  Tot=              0.5121
 Quadrupole moment (field-independent basis, Debye-Ang):
   XX=            -39.8039   YY=            -38.0595   ZZ=            -47.7340
   XY=             -0.4072   XZ=              0.0009   YZ=              0.0007

 Normal termination of Gaussian 16 at Thu Jun 12 22:00:48 2025.
