 Gaussian 16, Revision B.01,
 Gaussian 16:  EM64L-G16RevB.01 20-Dec-2017

 --------------------------------------
 # hf/3-21g* pop=full geom=connectivity
 --------------------------------------

 -------------------
 Title Card Required
 -------------------
 Symbolic Z-matrix:
 Charge =  0 Multiplicity = 1

                         Standard orientation:
 ---------------------------------------------------------------------
 Center     Atomic      Atomic             Coordinates (Angstroms)
 Number     Number       Type             X           Y           Z
 ---------------------------------------------------------------------
      1          6           0       -1.890593   -0.000467    0.003484
      2          6           0       -1.190638   -1.207121    0.000782
      3          6           0        0.203105   -1.207668   -0.004338
      4          6           0        0.910771    0.000580   -0.006223
      5          6           0        0.202325    1.208201   -0.004335
      6          6           0       -1.191544    1.206591    0.000777
      7          1           0       -2.990043   -0.000908    0.006972
      8          1           0       -1.738821   -2.160618    0.002128
      9          1           0        0.752219   -2.160875   -0.007622
     10          1           0        0.750419    2.162009   -0.007595
     11          1           0       -1.740332    2.159743    0.002127
     12          6           0        2.391499    0.000185    0.003924
     13          1           0        2.765475   -0.024957    1.058788
     14          1           0        2.795114   -0.894605   -0.530887
     15          1           0        2.796425    0.918409   -0.488332
 ---------------------------------------------------------------------

 SCF Done:  E(RHF) =  -268.233806871     A.U. after   12 cycles

 The electronic state is 1-A.
 Alpha  occ. eigenvalues --  -11.18705 -11.18056 -11.18047 -11.17691 -11.17664
 Alpha  occ. eigenvalues --  -11.17646 -11.17167  -1.15362  -1.04543  -1.00898
 Alpha  occ. eigenvalues --   -0.92734  -0.82216  -0.79234  -0.69193  -0.63665
 Alpha  occ. eigenvalues --   -0.62281  -0.58349  -0.57378  -0.56627  -0.53020
 Alpha  occ. eigenvalues --   -0.48805  -0.48286  -0.47968  -0.33635  -0.32297
 Alpha virt. eigenvalues --    0.14854   0.14960   0.25458   0.29148   0.30356
 Alpha virt. eigenvalues --    0.32308   0.34278   0.34515   0.37033   0.37262
 Alpha virt. eigenvalues --    0.40205   0.44799   0.50979   0.53063   0.54153

 Mulliken charges:
               1
     1  C   -0.246758
     2  C   -0.226793
     3  C   -0.229093
     4  C   -0.065349
     5  C   -0.229224
     6  C   -0.226815
     7  H    0.233998
     8  H    0.235139
     9  H    0.231282
    10  H    0.231242
    11  H    0.235137
    12  C   -0.575422
    13  H    0.218405
    14  H    0.207364
    15  H    0.206885
 Sum of Mulliken charges =  -0.00000

 Dipole moment (field-independent basis, Debye):
    X=              0.3053    Y=             -0.0032    Z=              0.0425  Tot=              0.3083
 Quadrupole moment (field-independent basis, Debye-Ang):
   XX=            -38.2990   YY=            -38.2719   ZZ=            -47.7889
   XY=             -0.0043   XZ=              0.0262   YZ=             -0.0000

 Normal termination of Gaussian 16 at Thu Jun 12 21:50:28 2025.
