 Gaussian 16, Revision B.01,
 Gaussian 16:  EM64L-G16RevB.01 20-Dec-2017

 ----------------------------------------------
 # opt freq hf/3-21g pop=full geom=connectivity
 ----------------------------------------------

 -------------------
 Title Card Required
 -------------------
 Symbolic Z-matrix:
 Charge =  0 Multiplicity = 1

 SCF Done:  E(RHF) =  -1719.34054179     A.U. after   14 cycles
 SCF Done:  E(RHF) =  -1719.50301264     A.U. after   14 cycles
 SCF Done:  E(RHF) =  -1719.52426340     A.U. after   13 cycles
 SCF Done:  E(RHF) =  -1719.52708824     A.U. after   14 cycles
 SCF Done:  E(RHF) =  -1719.53529529     A.U. after   13 cycles
 SCF Done:  E(RHF) =  -1719.52980962     A.U. after   14 cycles
 SCF Done:  E(RHF) =  -1719.53612272     A.U. after   13 cycles
 SCF Done:  E(RHF) =  -1719.53704887     A.U. after   14 cycles
 SCF Done:  E(RHF) =  -1719.53802090     A.U. after   12 cycles
 SCF Done:  E(RHF) =  -1719.53868889     A.U. after   12 cycles
 SCF Done:  E(RHF) =  -1719.54048560     A.U. after   12 cycles
 SCF Done:  E(RHF) =  -1719.54055467     A.U. after   12 cycles
 SCF Done:  E(RHF) =  -1719.54060552     A.U. after   11 cycles
 SCF Done:  E(RHF) =  -1719.54062851     A.U. after   11 cycles
 SCF Done:  E(RHF) =  -1719.54063533     A.U. after   11 cycles
 SCF Done:  E(RHF) =  -1719.54063635     A.U. after    8 cycles
 SCF Done:  E(RHF) =  -1719.54063679     A.U. after    9 cycles
 SCF Done:  E(RHF) =  -1719.54063689     A.U. after    8 cycles
 SCF Done:  E(RHF) =  -1719.54063693     A.U. after    8 cycles
 Optimization completed.
    -- Stationary point found.
 Normal termination of Gaussian 16 at Mon Jun 16 22:47:01 2025.

 --------------------------------------------------------------
 #N Geom=AllCheck Guess=TCheck SCRF=Check GenChk RHF/3-21G Freq
 --------------------------------------------------------------

 Structure from the checkpoint file:  "26DMP_BCl3_adduct_opt.chk"
 -------------------
 Title Card Required
 -------------------
 Charge =  0 Multiplicity = 1

                         Standard orientation:
 ---------------------------------------------------------------------
 Center     Atomic      Atomic             Coordinates (Angstroms)
 Number     Number       Type             X           Y           Z
 ---------------------------------------------------------------------
      1          6           0       -1.265864   -1.179320    0.078664
      2          6           0       -2.621516   -1.183686   -0.170653
      3          6           0       -3.299115   -0.000065   -0.356916
      4          6           0       -2.621548    1.183651   -0.170760
      5          6           0       -1.265960    1.179377    0.078592
      6          7           0       -0.573632    0.000009    0.062103
      7          1           0       -4.347313   -0.000086   -0.577248
      8          1           0       -3.133426   -2.121493   -0.188007
      9          1           0       -3.133545    2.121411   -0.188178
     10          6           0       -0.636535   -2.500003    0.478592
     11          1           0       -1.387992   -3.059232    1.020906
     12          1           0       -0.327623   -3.069321   -0.383617
     13          1           0        0.214747   -2.356326    1.121989
     14          6           0       -0.636652    2.500042    0.478688
     15          1           0        0.214594    2.356261    1.122121
     16          1           0       -0.327728    3.069517   -0.383401
     17          1           0       -1.388142    3.059156    1.021078
     18          5           0        1.046276    0.000042   -0.042205
     19         17           0        1.692904   -1.498278   -1.024082
     20         17           0        1.701375   -0.000345    1.736614
     21         17           0        1.692992    1.498615   -1.023508
 ---------------------------------------------------------------------

 SCF Done:  E(RHF) =  -1719.54063693     A.U. after    1 cycles

 The electronic state is 1-A.
 Alpha  occ. eigenvalues -- -104.06512-104.06244-104.06231 -15.62056 -11.31376
 Alpha  occ. eigenvalues --  -11.31354 -11.26542 -11.23315 -11.23305 -11.19946
 Alpha  occ. eigenvalues --  -11.19943 -10.45942 -10.45654 -10.45609  -7.92262
 Alpha  occ. eigenvalues --   -7.91957  -7.91951  -7.91925  -7.91913  -7.91626
 Alpha  occ. eigenvalues --   -7.91606  -7.91600  -7.91589  -7.71681  -1.36413
 Alpha  occ. eigenvalues --   -1.17041  -1.14532  -1.10429  -1.05238  -1.04646
 Alpha  occ. eigenvalues --   -1.04026  -0.98696  -0.91538  -0.89228  -0.78705
 Alpha  occ. eigenvalues --   -0.75118  -0.71740  -0.67071  -0.66597  -0.63545
 Alpha  occ. eigenvalues --   -0.61900  -0.61697  -0.59257  -0.58465  -0.57101
 Alpha  occ. eigenvalues --   -0.56479  -0.55156  -0.51897  -0.51067  -0.46683
 Alpha  occ. eigenvalues --   -0.43960  -0.43539  -0.42984  -0.41225  -0.40828
 Alpha  occ. eigenvalues --   -0.40047  -0.38883
 Alpha virt. eigenvalues --    0.03302   0.09011   0.21382   0.22948   0.23267
 Alpha virt. eigenvalues --    0.24529   0.27251   0.27760   0.29467   0.30839
 Alpha virt. eigenvalues --    0.31065   0.31425   0.32824   0.34851   0.35045

 Mulliken charges:
               1
     1  C    0.448351
     2  C   -0.321596
     3  C   -0.124795
     4  C   -0.321601
     5  C    0.448253
     6  N   -1.001930
     7  H    0.289960
     8  H    0.278272
     9  H    0.278272
    10  C   -0.622856
    11  H    0.231817
    12  H    0.289898
    13  H    0.295211
    14  C   -0.622836
    15  H    0.295190
    16  H    0.289886
    17  H    0.231818
    18  B    0.353988
    19  Cl  -0.244059
    20  Cl  -0.227213
    21  Cl  -0.244030
 Sum of Mulliken charges =  -0.00000

 Dipole moment (field-independent basis, Debye):
    X=            -10.8510    Y=              0.0001    Z=              0.8412  Tot=             10.8836
 Quadrupole moment (field-independent basis, Debye-Ang):
   XX=            -90.0229   YY=            -85.2425   ZZ=           -104.2171
   XY=              0.0003   XZ=              2.4682   YZ=             -0.0001

  Exact polarizability: 110.446   0.000 120.639   5.388  -0.001  70.607
 Approx polarizability:  96.351   0.000 108.485   5.663  -0.002  65.521

                      1                      2                      3
                      A                      A                      A
 Frequencies --     36.5544                74.6118               165.2138
 Red. masses --      6.5987                 5.2139                10.5852
 Frc consts  --      0.0052                 0.0171                 0.1702
 IR Inten    --      0.2936                 0.4425                 1.4241
 Raman Activ --      1.7530                 5.6221                 3.8952

                      4                      5                      6
                      A                      A                      A
 Frequencies --    179.0710               206.0282               227.0755
 Red. masses --      6.5389                 4.1060                 4.8568
 Frc consts  --      0.1235                 0.1027                 0.1476
 IR Inten    --      5.2260                 1.6873                 4.0419
 Raman Activ --      2.0366                 1.3222                 3.4304

                      7                      8                      9
                      A                      A                      A
 Frequencies --    260.9914               266.4886               279.0382
 Red. masses --      4.0404                 3.0902                 2.1326
 Frc consts  --      0.1622                 0.1293                 0.0978
 IR Inten    --      0.0712                 0.4785                 1.9399
 Raman Activ --      2.9640                 3.1506                 2.0423

                     10                     11                     12
                      A                      A                      A
 Frequencies --    306.0544               310.2251               340.4103
 Red. masses --      1.5566                 1.8905                 4.8994
 Frc consts  --      0.0859                 0.1072                 0.3345
 IR Inten    --      3.1435                 5.8613                 0.4480
 Raman Activ --      1.8897                 0.0320                 1.3436

                     13                     14                     15
                      A                      A                      A
 Frequencies --    360.4243               426.2986               501.8762
 Red. masses --     10.3294                 3.3079                 2.8231
 Frc consts  --      0.7906                 0.3542                 0.4190
 IR Inten    --      0.3407                 2.6294                 0.2157
 Raman Activ --      6.1015                 1.6083                 0.8235

                     16                     17                     18
                      A                      A                      A
 Frequencies --    540.7807               578.5593               595.8361
 Red. masses --      3.8594                 5.7767                 5.3147
 Frc consts  --      0.6650                 1.1393                 1.1117
 IR Inten    --     27.6156                45.9390                 4.4538
 Raman Activ --      3.6129                14.5062                 6.7496

                     19                     20                     21
                      A                      A                      A
 Frequencies --    636.5918               710.6423               716.8903
 Red. masses --      2.9787                 6.8093                 7.4758
 Frc consts  --      0.7112                 2.0261                 2.2637
 IR Inten    --     26.7399               166.3872               295.3573
 Raman Activ --      1.5741                 3.2061                 4.4206

                     22                     23                     24
                      A                      A                      A
 Frequencies --    743.1615               857.1111               886.6435
 Red. masses --      8.8545                 6.6699                 3.1930
 Frc consts  --      2.8813                 2.8870                 1.4789
 IR Inten    --    216.6733                79.3255                34.0821
 Raman Activ --      1.1097                 9.1427                 0.8009

                     25                     26                     27
                      A                      A                      A
 Frequencies --    930.0023               960.3542              1043.3286
 Red. masses --      1.1959                 5.3440                 1.5928
 Frc consts  --      0.6094                 2.9039                 1.0215
 IR Inten    --     52.0800                 4.1032                32.9228
 Raman Activ --      0.9280                 0.3093                 0.2853

                     28                     29                     30
                      A                      A                      A
 Frequencies --   1115.3604              1140.4681              1154.2391
 Red. masses --      1.8827                 1.7267                 4.1728
 Frc consts  --      1.3799                 1.3232                 3.2754
 IR Inten    --     16.6987                 2.9200                91.6309
 Raman Activ --      0.3570                 5.4520                18.2104

                     31                     32                     33
                      A                      A                      A
 Frequencies --   1205.3798              1214.7476              1228.6688
 Red. masses --      1.4789                 1.5879                 1.7319
 Frc consts  --      1.2660                 1.3806                 1.5404
 IR Inten    --      4.3036                 0.3851                42.3054
 Raman Activ --      3.1355                 0.0314                 1.2190

                     34                     35                     36
                      A                      A                      A
 Frequencies --   1249.4675              1259.8710              1327.0167
 Red. masses --      2.4530                 1.6572                 1.2283
 Frc consts  --      2.2563                 1.5498                 1.2744
 IR Inten    --     12.4938                21.9274                 7.4795
 Raman Activ --      4.5248                 0.6892                 1.7208

                     37                     38                     39
                      A                      A                      A
 Frequencies --   1380.2230              1405.1022              1567.1273
 Red. masses --      7.8579                 2.0239                 1.9650
 Frc consts  --      8.8198                 2.3543                 2.8434
 IR Inten    --      0.2117                55.1158                53.7151
 Raman Activ --      9.0656                 0.5302                 4.9010

                     40                     41                     42
                      A                      A                      A
 Frequencies --   1585.6042              1589.3502              1629.5882
 Red. masses --      1.1855                 1.1531                 1.7273
 Frc consts  --      1.7560                 1.7162                 2.7025
 IR Inten    --     43.3412                 3.6249                54.2773
 Raman Activ --     12.1636                17.0572                 0.4254

                     43                     44                     45
                      A                      A                      A
 Frequencies --   1642.4859              1655.8392              1683.6184
 Red. masses --      1.1239                 1.1486                 1.0621
 Frc consts  --      1.7863                 1.8555                 1.7737
 IR Inten    --     64.3323                20.6932                 0.0004
 Raman Activ --      6.0298                20.6066                 8.6581

                     46                     47                     48
                      A                      A                      A
 Frequencies --   1684.7499              1728.7283              1779.2328
 Red. masses --      1.0541                 3.9572                 4.2035
 Frc consts  --      1.7627                 6.9677                 7.8401
 IR Inten    --     29.5901                59.5625               143.9827
 Raman Activ --     17.0772                14.3519                21.8005

                     49                     50                     51
                      A                      A                      A
 Frequencies --   3236.5470              3236.8653              3310.2653
 Red. masses --      1.0430                 1.0430                 1.0918
 Frc consts  --      6.4372                 6.4383                 7.0490
 IR Inten    --      4.1187                12.5013                 4.1429
 Raman Activ --     17.1296               222.7726               109.9876

                     52                     53                     54
                      A                      A                      A
 Frequencies --   3310.4771              3350.8833              3351.1549
 Red. masses --      1.0919                 1.1011                 1.1011
 Frc consts  --      7.0501                 7.2845                 7.2855
 IR Inten    --      2.4367                 0.8399                 0.9268
 Raman Activ --     30.9786                12.5123                70.8148

                     55                     56                     57
                      A                      A                      A
 Frequencies --   3380.8802              3408.4358              3414.4329
 Red. masses --      1.0908                 1.0920                 1.0971
 Frc consts  --      7.3458                 7.4746                 7.5356
 IR Inten    --      2.5618                 0.5807                 0.1112
 Raman Activ --     75.8645                51.3150               151.4469

 - Thermochemistry -
 -------------------
 Temperature   298.150 Kelvin.  Pressure   1.00000 Atm.
 Atom     1 has atomic number  6 and mass  12.00000

 Molecular mass:   222.98936 amu.
 Principal axes and moments of inertia in atomic units:
                           1         2         3
     Eigenvalues --  2228.959593197.571034055.15348
           X            0.99999  -0.00000   0.00364
           Y            0.00000   1.00000   0.00000
           Z           -0.00364  -0.00000   0.99999
 This molecule is an asymmetric top.
 Rotational symmetry number  1.
 Warning -- assumption of classical behavior for rotation
           may cause significant error
 Rotational temperatures (Kelvin)      0.03886     0.02709     0.02136
 Rotational constants (GHZ):           0.80968     0.56441     0.44505
 Zero-point vibrational energy     438832.6 (Joules/Mol)
                                  104.88350 (Kcal/Mol)
 Warning -- explicit consideration of  18 degrees of freedom as
           vibrations may cause significant error
 Vibrational temperatures:     52.59   107.35   237.71   257.64   296.43
          (Kelvin)            326.71   375.51   383.42   401.47   440.34
                              446.34   489.77   518.57   613.35   722.09
                              778.06   832.42   857.28   915.91  1022.46
                             1031.45  1069.24  1233.19  1275.68  1338.07
                             1381.74  1501.12  1604.75  1640.88  1660.69
                             1734.27  1747.75  1767.78  1797.71  1812.67
                             1909.28  1985.83  2021.63  2254.75  2281.33
                             2286.72  2344.61  2363.17  2382.38  2422.35
                             2423.98  2487.25  2559.92  4656.67  4657.13
                             4762.73  4763.04  4821.17  4821.56  4864.33
                             4903.98  4912.61

 Zero-point correction=                           0.167142 (Hartree/Particle)
 Thermal correction to Energy=                    0.178752
 Thermal correction to Enthalpy=                  0.179696
 Thermal correction to Gibbs Free Energy=         0.128685
 Sum of electronic and zero-point Energies=          -1719.373494
 Sum of electronic and thermal Energies=             -1719.361885
 Sum of electronic and thermal Enthalpies=           -1719.360941
 Sum of electronic and thermal Free Energies=        -1719.411952

                     E (Thermal)             CV                S
                      KCal/Mol        Cal/Mol-Kelvin    Cal/Mol-Kelvin
 Total                  112.168             42.966            107.362
 Electronic               0.000              0.000              0.000
 Translational            0.889              2.981             42.108
 Rotational               0.889              2.981             31.736
 Vibrational            110.391             37.004             33.518
 Vibration     1          0.594              1.982              5.438
 Vibration     2          0.599              1.966              4.028
 Vibration     3          0.624              1.885              2.489
 Vibration     4          0.629              1.868              2.338
 Vibration     5          0.641              1.831              2.079
 Vibration     6          0.651              1.800              1.902
 Vibration     7          0.669              1.744              1.655
 Vibration     8          0.672              1.735              1.619
 Vibration     9          0.679              1.712              1.540
 Vibration    10          0.696              1.662              1.384
 Vibration    11          0.699              1.654              1.361
 Vibration    12          0.720              1.595              1.210
 Vibration    13          0.735              1.554              1.120
 Vibration    14          0.788              1.413              0.871
 Vibration    15          0.857              1.246              0.653
 Vibration    16          0.896              1.160              0.564
 Vibration    17          0.935              1.078              0.488
 Vibration    18          0.954              1.041              0.457

 Optimization completed.
    -- Stationary point found.
 Normal termination of Gaussian 16 at Mon Jun 16 22:47:23 2025.
