 Gaussian 16, Revision B.01,
 Gaussian 16:  EM64L-G16RevB.01 20-Dec-2017

 -------------------------------------
 # hf/3-21g pop=full geom=connectivity
 -------------------------------------

 -------------------
 Title Card Required
 -------------------
 Symbolic Z-matrix:
 Charge =  0 Multiplicity = 1

                         Standard orientation:
 ---------------------------------------------------------------------
 Center     Atomic      Atomic             Coordinates (Angstroms)
 Number     Number       Type             X           Y           Z
 ---------------------------------------------------------------------
      1          6           0       -1.265864   -1.179320    0.078664
      2          6           0       -2.621516   -1.183686   -0.170653
      3          6           0       -3.299115   -0.000065   -0.356916
      4          6           0       -2.621548    1.183651   -0.170760
      5          6           0       -1.265960    1.179377    0.078592
      6          7           0       -0.573632    0.000009    0.062103
      7          1           0       -4.347313   -0.000086   -0.577248
      8          1           0       -3.133426   -2.121493   -0.188007
      9          1           0       -3.133545    2.121411   -0.188178
     10          6           0       -0.636535   -2.500003    0.478592
     11          1           0       -1.387992   -3.059232    1.020906
     12          1           0       -0.327623   -3.069321   -0.383617
     13          1           0        0.214747   -2.356326    1.121989
     14          6           0       -0.636652    2.500042    0.478688
     15          1           0        0.214594    2.356261    1.122121
     16          1           0       -0.327728    3.069517   -0.383401
     17          1           0       -1.388142    3.059156    1.021078
     18          5           0        1.046276    0.000042   -0.042205
     19         17           0        1.692904   -1.498278   -1.024082
     20         17           0        1.701375   -0.000345    1.736614
     21         17           0        1.692992    1.498615   -1.023508
 ---------------------------------------------------------------------

 SCF Done:  E(RHF) =  -1719.54063693     A.U. after   13 cycles

 The electronic state is 1-A.
 Alpha  occ. eigenvalues -- -104.06512-104.06244-104.06231 -15.62056 -11.31376
 Alpha  occ. eigenvalues --  -11.31354 -11.26542 -11.23315 -11.23305 -11.19946
 Alpha  occ. eigenvalues --  -11.19943 -10.45942 -10.45654 -10.45609  -7.92262
 Alpha  occ. eigenvalues --   -7.91957  -7.91951  -7.91925  -7.91913  -7.91626
 Alpha  occ. eigenvalues --   -7.91606  -7.91600  -7.91589  -7.71681  -1.36412
 Alpha  occ. eigenvalues --   -1.17041  -1.14532  -1.10429  -1.05238  -1.04646
 Alpha  occ. eigenvalues --   -1.04026  -0.98696  -0.91538  -0.89228  -0.78705
 Alpha  occ. eigenvalues --   -0.75118  -0.71740  -0.67071  -0.66597  -0.63545
 Alpha  occ. eigenvalues --   -0.61900  -0.61697  -0.59257  -0.58465  -0.57101
 Alpha  occ. eigenvalues --   -0.56479  -0.55156  -0.51897  -0.51067  -0.46683
 Alpha  occ. eigenvalues --   -0.43960  -0.43539  -0.42984  -0.41225  -0.40828
 Alpha  occ. eigenvalues --   -0.40047  -0.38883
 Alpha virt. eigenvalues --    0.03302   0.09011   0.21382   0.22948   0.23267
 Alpha virt. eigenvalues --    0.24529   0.27251   0.27760   0.29467   0.30839
 Alpha virt. eigenvalues --    0.31065   0.31425   0.32824   0.34851   0.35045

 Mulliken charges:
               1
     1  C    0.448351
     2  C   -0.321596
     3  C   -0.124795
     4  C   -0.321601
     5  C    0.448253
     6  N   -1.001930
     7  H    0.289960
     8  H    0.278272
     9  H    0.278273
    10  C   -0.622856
    11  H    0.231817
    12  H    0.289898
    13  H    0.295211
    14  C   -0.622837
    15  H    0.295190
    16  H    0.289885
    17  H    0.231818
    18  B    0.353987
    19  Cl  -0.244059
    20  Cl  -0.227213
    21  Cl  -0.244030
 Sum of Mulliken charges =  -0.00000

 Dipole moment (field-independent basis, Debye):
    X=            -10.8510    Y=              0.0001    Z=              0.8412  Tot=             10.8836
 Quadrupole moment (field-independent basis, Debye-Ang):
   XX=            -90.0228   YY=            -85.2425   ZZ=           -104.2171
   XY=              0.0003   XZ=              2.4682   YZ=             -0.0001

 Normal termination of Gaussian 16 at Mon Jun 16 22:48:13 2025.
