 Gaussian 16, Revision B.01,
 Gaussian 16:  EM64L-G16RevB.01 20-Dec-2017

 -------------------------------------
 # hf/3-21g pop=full geom=connectivity
 -------------------------------------

 -------------------
 Title Card Required
 -------------------
 Symbolic Z-matrix:
 Charge =  0 Multiplicity = 1

                         Standard orientation:
 ---------------------------------------------------------------------
 Center     Atomic      Atomic             Coordinates (Angstroms)
 Number     Number       Type             X           Y           Z
 ---------------------------------------------------------------------
      1          5           0        0.055393    0.000032    0.591546
      2         17           0       -0.925643   -1.498410   -0.056076
      3         17           0        1.834847   -0.000083   -0.061828
      4         17           0       -0.925496    1.498484   -0.056080
 ---------------------------------------------------------------------

 SCF Done:  E(RHF) =  -1396.46586607     A.U. after   12 cycles

 The electronic state is 1-A.
 Alpha  occ. eigenvalues -- -104.15318-104.14422-104.14398 -10.54647 -10.53800
 Alpha  occ. eigenvalues --  -10.53722  -8.00945  -8.00583  -8.00549  -8.00066
 Alpha  occ. eigenvalues --   -8.00058  -7.99709  -7.99699  -7.99676  -7.99661
 Alpha  occ. eigenvalues --   -7.82318  -1.17736  -1.12396  -1.11307  -0.70609
 Alpha  occ. eigenvalues --   -0.59348  -0.58517  -0.55168  -0.50407  -0.49644
 Alpha  occ. eigenvalues --   -0.48246  -0.47691  -0.46702
 Alpha virt. eigenvalues --   -0.05102   0.16033   0.16886   0.17876   0.55664
 Alpha virt. eigenvalues --    0.56025   0.56710   0.64003   0.72288   0.73171
 Alpha virt. eigenvalues --    0.74630   0.75146   0.76168   0.81010   0.84321

 Mulliken charges:
               1
     1  B    0.295701
     2  Cl  -0.101520
     3  Cl  -0.092695
     4  Cl  -0.101486
 Sum of Mulliken charges =  -0.00000

 Dipole moment (field-independent basis, Debye):
    X=              0.3277    Y=              0.0003    Z=              2.0720  Tot=              2.0978
 Quadrupole moment (field-independent basis, Debye-Ang):
   XX=            -48.9875   YY=            -49.2164   ZZ=            -41.9445
   XY=             -0.0002   XZ=              0.2152   YZ=              0.0001

 Normal termination of Gaussian 16 at Mon Jun 16 22:55:18 2025.
