 Gaussian 16, Revision B.01,
 Gaussian 16:  EM64L-G16RevB.01 20-Dec-2017

 -------------------------------------
 # hf/3-21g pop=full geom=connectivity
 -------------------------------------

 -------------------
 Title Card Required
 -------------------
 Symbolic Z-matrix:
 Charge = -1 Multiplicity = 2

                         Standard orientation:
 ---------------------------------------------------------------------
 Center     Atomic      Atomic             Coordinates (Angstroms)
 Number     Number       Type             X           Y           Z
 ---------------------------------------------------------------------
      1         13           0        0.000000    0.000000    0.677292
      2         17           0       -0.000000    2.131332   -0.172643
      3         17           0        1.845788   -1.065666   -0.172643
      4         17           0       -1.845788   -1.065666   -0.172643
 ---------------------------------------------------------------------

 SCF Done:  E(UHF) =  -1612.77445266     A.U. after   12 cycles

 The electronic state is 2-A1.
 Alpha  occ. eigenvalues -- -103.91671-103.91637-103.91637 -57.98991 -10.30807
 Alpha  occ. eigenvalues --  -10.30697 -10.30697  -7.77153  -7.77153  -7.77142
 Alpha  occ. eigenvalues --   -7.76793  -7.76793  -7.76793  -7.76765  -7.76749
 Alpha  occ. eigenvalues --   -7.76749  -4.79081  -3.09474  -3.09081  -3.09081
 Alpha  occ. eigenvalues --   -0.90871  -0.89229  -0.89229  -0.42335  -0.33446
 Alpha  occ. eigenvalues --   -0.33446  -0.31561  -0.29500  -0.29500  -0.27949
 Alpha  occ. eigenvalues --   -0.27949  -0.27334  -0.14960
 Alpha virt. eigenvalues --    0.26969   0.26969   0.30276   0.42418   0.49152
 Alpha virt. eigenvalues --    0.51564   0.51564   0.91435   0.91435   0.93883
 Alpha virt. eigenvalues --    0.94585   0.94585   1.01536   1.04781   1.07587

  Beta  occ. eigenvalues -- -103.91570-103.91537-103.91537 -57.98453 -10.30689
  Beta  occ. eigenvalues --  -10.30580 -10.30580  -7.76863  -7.76863  -7.76854
  Beta  occ. eigenvalues --   -7.76712  -7.76705  -7.76705  -7.76643  -7.76637
  Beta  occ. eigenvalues --   -7.76637  -4.78006  -3.08678  -3.08678  -3.08178
  Beta  occ. eigenvalues --   -0.89997  -0.88398  -0.88398  -0.39502  -0.32225
  Beta  occ. eigenvalues --   -0.32225  -0.30027  -0.28671  -0.28671  -0.27758
  Beta  occ. eigenvalues --   -0.27758  -0.27203
  Beta virt. eigenvalues --    0.18045   0.30500   0.30500   0.31279   0.45984
  Beta virt. eigenvalues --    0.52380   0.53849   0.53849   0.91618   0.91618
  Beta virt. eigenvalues --    0.94126   0.95041   0.95041   1.02565   1.04905

 Mulliken charges and spin densities:
               1          2
     1  Al   0.983643   0.911981
     2  Cl  -0.661214   0.029340
     3  Cl  -0.661214   0.029340
     4  Cl  -0.661214   0.029340
 Sum of Mulliken charges =  -1.00000   1.00000

 Dipole moment (field-independent basis, Debye):
    X=              0.0000    Y=              0.0000    Z=              1.9286  Tot=              1.9286
 Quadrupole moment (field-independent basis, Debye-Ang):
   XX=            -72.8142   YY=            -72.8142   ZZ=            -55.8873
   XY=              0.0000   XZ=             -0.0000   YZ=              0.0000

 Normal termination of Gaussian 16 at Fri Jun 13 21:42:17 2025.
