 Gaussian 16, Revision B.01,
 Gaussian 16:  EM64L-G16RevB.01 20-Dec-2017

 -----------------------------------------------
 # opt freq uhf/3-21g pop=full geom=connectivity
 -----------------------------------------------

 -------------------
 Title Card Required
 -------------------
 Symbolic Z-matrix:
 Charge = -1 Multiplicity = 2

 SCF Done:  E(UHF) =  -1612.75270259     A.U. after   13 cycles
 SCF Done:  E(UHF) =  -1612.76789497     A.U. after   13 cycles
 SCF Done:  E(UHF) =  -1612.77444342     A.U. after   12 cycles
 SCF Done:  E(UHF) =  -1612.77445266     A.U. after    9 cycles
 Optimization completed.
    -- Stationary point found.

 1\1\GINC-IISERK51\FOpt\UHF\3-21G\Al1Cl3(1-,2)\GAUSSIAN\13-Jun-2025\0\\
 # opt freq uhf/3-21g pop=full geom=connectivity\\Title Card Required\\
 -1,2\Al,0.,-0.0000002656,-0.6677976991\Cl,-0.0000000769,2.1313320435,0
 .1821370998\Cl,-1.8457878851,-1.0656664868,0.1821370998\Cl,1.845787962
 1,-1.0656663536,0.1821370998\\Version=EM64L-G16RevB.01\State=2-A1\HF=-
 1612.7744527\S2=0.752223\S2-1=0.\S2A=0.750002\RMSD=6.113e-09\RMSF=7.68
 7e-06\Dipole=0.,0.,-0.7587537\Quadrupole=-4.1949096,-4.1949096,8.38981
 92,0.,0.,0.\PG=C03V [C3(Al1),3SGV(Cl1)]\\@

 Normal termination of Gaussian 16 at Fri Jun 13 21:40:37 2025.

 --------------------------------------------------------------
 #N Geom=AllCheck Guess=TCheck SCRF=Check GenChk UHF/3-21G Freq
 --------------------------------------------------------------

 Structure from the checkpoint file:  "MX3_planar_ion_opt.chk"
 -------------------
 Title Card Required
 -------------------
 Charge = -1 Multiplicity = 2

                         Standard orientation:
 ---------------------------------------------------------------------
 Center     Atomic      Atomic             Coordinates (Angstroms)
 Number     Number       Type             X           Y           Z
 ---------------------------------------------------------------------
      1         13           0        0.000000    0.000000    0.677292
      2         17           0       -0.000000    2.131332   -0.172643
      3         17           0        1.845788   -1.065666   -0.172643
      4         17           0       -1.845788   -1.065666   -0.172643
 ---------------------------------------------------------------------

 SCF Done:  E(UHF) =  -1612.77445266     A.U. after    1 cycles

 The electronic state is 2-A1.
 Alpha  occ. eigenvalues -- -103.91671-103.91637-103.91637 -57.98991 -10.30807
 Alpha  occ. eigenvalues --  -10.30697 -10.30697  -7.77153  -7.77153  -7.77142
 Alpha  occ. eigenvalues --   -7.76793  -7.76793  -7.76793  -7.76765  -7.76749
 Alpha  occ. eigenvalues --   -7.76749  -4.79081  -3.09474  -3.09081  -3.09081
 Alpha  occ. eigenvalues --   -0.90871  -0.89229  -0.89229  -0.42335  -0.33446
 Alpha  occ. eigenvalues --   -0.33446  -0.31561  -0.29500  -0.29500  -0.27949
 Alpha  occ. eigenvalues --   -0.27949  -0.27334  -0.14960
 Alpha virt. eigenvalues --    0.26969   0.26969   0.30276   0.42418   0.49152
 Alpha virt. eigenvalues --    0.51564   0.51564   0.91435   0.91435   0.93883
 Alpha virt. eigenvalues --    0.94585   0.94585   1.01536   1.04781   1.07587

  Beta  occ. eigenvalues -- -103.91570-103.91537-103.91537 -57.98453 -10.30689
  Beta  occ. eigenvalues --  -10.30580 -10.30580  -7.76863  -7.76863  -7.76854
  Beta  occ. eigenvalues --   -7.76712  -7.76705  -7.76705  -7.76643  -7.76637
  Beta  occ. eigenvalues --   -7.76637  -4.78006  -3.08678  -3.08678  -3.08178
  Beta  occ. eigenvalues --   -0.89997  -0.88398  -0.88398  -0.39502  -0.32225
  Beta  occ. eigenvalues --   -0.32225  -0.30027  -0.28671  -0.28671  -0.27758
  Beta  occ. eigenvalues --   -0.27758  -0.27203
  Beta virt. eigenvalues --    0.18045   0.30500   0.30500   0.31279   0.45984
  Beta virt. eigenvalues --    0.52380   0.53849   0.53849   0.91618   0.91618
  Beta virt. eigenvalues --    0.94126   0.95041   0.95041   1.02565   1.04905

 Mulliken charges and spin densities:
               1          2
     1  Al   0.983643   0.911981
     2  Cl  -0.661214   0.029340
     3  Cl  -0.661214   0.029340
     4  Cl  -0.661214   0.029340
 Sum of Mulliken charges =  -1.00000   1.00000

 Dipole moment (field-independent basis, Debye):
    X=              0.0000    Y=             -0.0000    Z=              1.9286  Tot=              1.9286
 Quadrupole moment (field-independent basis, Debye-Ang):
   XX=            -72.8142   YY=            -72.8142   ZZ=            -55.8873
   XY=              0.0000   XZ=              0.0000   YZ=             -0.0000

  Exact polarizability:  54.514  -0.000  54.514   0.000  -0.000  31.993
 Approx polarizability:  37.755  -0.000  37.755   0.000   0.000  22.137

                      1                      2                      3
                      E                      E                     A1
 Frequencies --    129.1145               129.1145               185.5194
 Red. masses --     33.9989                33.9989                32.1497
 Frc consts  --      0.3339                 0.3339                 0.6519
 IR Inten    --      3.3765                 3.3765                20.8566
 Raman Activ --      1.8295                 1.8295                 2.9643

                      4                      5                      6
                     A1                      E                      E
 Frequencies --    379.4777               439.3525               439.3525
 Red. masses --     30.4665                29.3227                29.3227
 Frc consts  --      2.5849                 3.3349                 3.3349
 IR Inten    --     76.6527               159.6011               159.6011
 Raman Activ --      8.5078                 5.7417                 5.7417

 - Thermochemistry -
 -------------------
 Temperature   298.150 Kelvin.  Pressure   1.00000 Atm.
 Atom     1 has atomic number 13 and mass  26.98154

 Molecular mass:   131.88810 amu.
 Principal axes and moments of inertia in atomic units:
                           1         2         3
     Eigenvalues --   906.25329 906.253291701.77724
           X            0.83205   0.55470   0.00000
           Y           -0.55470   0.83205   0.00000
           Z            0.00000  -0.00000   1.00000
 This molecule is an oblate symmetric top.
 Rotational symmetry number  3.
 Warning -- assumption of classical behavior for rotation
           may cause significant error
 Rotational temperatures (Kelvin)      0.09557     0.09557     0.05090
 Rotational constants (GHZ):           1.99143     1.99143     1.06050
 Zero-point vibrational energy      10179.8 (Joules/Mol)
                                    2.43303 (Kcal/Mol)
 Warning -- explicit consideration of   6 degrees of freedom as
           vibrations may cause significant error
 Vibrational temperatures:    185.77   185.77   266.92   545.98   632.13
          (Kelvin)            632.13

 Zero-point correction=                           0.003877 (Hartree/Particle)
 Thermal correction to Energy=                    0.009530
 Thermal correction to Enthalpy=                  0.010474
 Thermal correction to Gibbs Free Energy=        -0.027229
 Sum of electronic and zero-point Energies=          -1612.770575
 Sum of electronic and thermal Energies=             -1612.764922
 Sum of electronic and thermal Enthalpies=           -1612.763978
 Sum of electronic and thermal Free Energies=        -1612.801681

                     E (Thermal)             CV                S
                      KCal/Mol        Cal/Mol-Kelvin    Cal/Mol-Kelvin
 Total                    5.980             15.952             79.353
 Electronic               0.000              0.000              1.377
 Translational            0.889              2.981             40.543
 Rotational               0.889              2.981             26.543
 Vibrational              4.203              9.991             10.889
 Vibration     1          0.612              1.924              2.959
 Vibration     2          0.612              1.924              2.959
 Vibration     3          0.632              1.860              2.272
 Vibration     4          0.749              1.514              1.041
 Vibration     5          0.799              1.384              0.829
 Vibration     6          0.799              1.384              0.829

 Optimization completed.
    -- Stationary point found.

 1\1\GINC-IISERK51\Freq\UHF\3-21G\Al1Cl3(1-,2)\GAUSSIAN\13-Jun-2025\0\\
 #N Geom=AllCheck Guess=TCheck SCRF=Check GenChk UHF/3-21G Freq\\Title
 Card Required\\-1,2\Al,0.,-0.0000002656,-0.6677976991\Cl,-0.0000000769
 ,2.1313320435,0.1821370998\Cl,-1.8457878851,-1.0656664868,0.1821370998
 \Cl,1.8457879621,-1.0656663536,0.1821370998\\Version=EM64L-G16RevB.01\
 State=2-A1\HF=-1612.7744527\S2=0.752223\S2-1=0.\S2A=0.750002\RMSD=4.46
 4e-10\RMSF=7.687e-06\ZeroPoint=0.0038773\Thermal=0.0095303\Dipole=0.,0
 .,-0.7587537\DipoleDeriv=1.6143257,0.,0.,0.,1.6143256,0.,0.,0.,1.23803

 Normal termination of Gaussian 16 at Fri Jun 13 21:40:38 2025.
