 Gaussian 16, Revision B.01,
 Gaussian 16:  EM64L-G16RevB.01 20-Dec-2017

 --------------------------------------
 # hf/3-21g* pop=full geom=connectivity
 --------------------------------------

 ------------
 Optimisation
 ------------
 Symbolic Z-matrix:
 Charge =  0 Multiplicity = 1

                         Standard orientation:
 ---------------------------------------------------------------------
 Center     Atomic      Atomic             Coordinates (Angstroms)
 Number     Number       Type             X           Y           Z
 ---------------------------------------------------------------------
      1          6           0       -0.682932   -1.000694    0.000045
      2          6           0       -1.615096   -0.019554   -0.000021
      3          6           0       -0.505869    1.045596    0.000025
      4          6           0        0.436042    0.068715   -0.000007
      5          1           0       -0.634317   -2.076364    0.000075
      6          1           0       -2.688273    0.074805   -0.000051
      7          1           0       -0.551026    2.121507    0.000026
      8          6           0        1.878297   -0.061670   -0.000032
      9          1           0        2.217492   -0.627465   -0.906050
     10          1           0        2.375916    0.940253   -0.000251
     11          1           0        2.217552   -0.627094    0.906196
 ---------------------------------------------------------------------

 SCF Done:  E(RHF) =  -191.588687185     A.U. after   13 cycles

 The electronic state is 1-A.
 Alpha  occ. eigenvalues --  -11.19474 -11.18821 -11.17977 -11.17710 -11.17282
 Alpha  occ. eigenvalues --   -1.17180  -1.00215  -0.88178  -0.80471  -0.69065
 Alpha  occ. eigenvalues --   -0.65536  -0.59616  -0.57569  -0.54679  -0.49852
 Alpha  occ. eigenvalues --   -0.45757  -0.44632  -0.25877
 Alpha virt. eigenvalues --    0.09857   0.26683   0.28429   0.30516   0.30881
 Alpha virt. eigenvalues --    0.33155   0.35207   0.36565   0.37070   0.45418
 Alpha virt. eigenvalues --    0.51508   0.55736   0.78551   0.86797   0.92029

 Mulliken charges:
               1
     1  C   -0.224404
     2  C   -0.239896
     3  C   -0.234325
     4  C   -0.021259
     5  H    0.238217
     6  H    0.238557
     7  H    0.233425
     8  C   -0.643407
     9  H    0.217799
    10  H    0.217490
    11  H    0.217803
 Sum of Mulliken charges =  -0.00000

 Dipole moment (field-independent basis, Debye):
    X=              0.3953    Y=             -0.0964    Z=             -0.0000  Tot=              0.4068
 Quadrupole moment (field-independent basis, Debye-Ang):
   XX=            -27.8251   YY=            -28.4265   ZZ=            -34.1322
   XY=             -1.0244   XZ=              0.0001   YZ=             -0.0001

 Normal termination of Gaussian 16 at Thu Jun 12 22:22:48 2025.
