 Gaussian 16, Revision B.01,
 Gaussian 16:  EM64L-G16RevB.01 20-Dec-2017

 --------------------------------------
 # hf/3-21g* pop=full geom=connectivity
 --------------------------------------

 ------------
 Optimisation
 ------------
 Symbolic Z-matrix:
 Charge =  0 Multiplicity = 1

                         Standard orientation:
 ---------------------------------------------------------------------
 Center     Atomic      Atomic             Coordinates (Angstroms)
 Number     Number       Type             X           Y           Z
 ---------------------------------------------------------------------
      1          6           0        0.518386    1.055798    0.000268
      2          6           0        1.508678    0.123572   -0.000299
      3          6           0        0.531732   -1.053024    0.000154
      4          6           0       -0.556611    0.027473   -0.000010
      5          1           0        0.460680    2.134741    0.000444
      6          1           0        2.587851    0.127950   -0.000580
      7          1           0        0.559640   -1.685318    0.912032
      8          6           0       -1.876033    0.023702   -0.000135
      9          1           0       -2.458917   -0.906507   -0.000218
     10          1           0       -2.465579    0.949761   -0.000115
     11          1           0        0.559415   -1.685748   -0.911429
 ---------------------------------------------------------------------

 SCF Done:  E(RHF) =  -191.660688987     A.U. after   12 cycles

 The electronic state is 1-A.
 Alpha  occ. eigenvalues --  -11.19367 -11.19069 -11.18700 -11.18265 -11.16186
 Alpha  occ. eigenvalues --   -1.16949  -0.99577  -0.90034  -0.79908  -0.69729
 Alpha  occ. eigenvalues --   -0.66459  -0.60474  -0.59822  -0.53705  -0.48801
 Alpha  occ. eigenvalues --   -0.45471  -0.41100  -0.31984
 Alpha virt. eigenvalues --    0.13475   0.24052   0.29864   0.30427   0.31177
 Alpha virt. eigenvalues --    0.33199   0.34917   0.36154   0.38713   0.43512
 Alpha virt. eigenvalues --    0.54740   0.59124   0.69556   0.88432   0.91984

 Mulliken charges:
               1
     1  C   -0.170990
     2  C   -0.248215
     3  C   -0.378813
     4  C   -0.058001
     5  H    0.236492
     6  H    0.234000
     7  H    0.224454
     8  C   -0.481268
     9  H    0.209383
    10  H    0.208554
    11  H    0.224405
 Sum of Mulliken charges =  -0.00000

 Dipole moment (field-independent basis, Debye):
    X=              0.5084    Y=             -0.1153    Z=              0.0003  Tot=              0.5213
 Quadrupole moment (field-independent basis, Debye-Ang):
   XX=            -28.1891   YY=            -28.2738   ZZ=            -34.0808
   XY=             -0.3816   XZ=             -0.0004   YZ=              0.0001

 Normal termination of Gaussian 16 at Thu Jun 12 22:29:13 2025.
