 Gaussian 16, Revision B.01,
 Gaussian 16:  EM64L-G16RevB.01 20-Dec-2017

 -------------------------------------
 # hf/3-21g pop=full geom=connectivity
 -------------------------------------

 -------------------
 Title Card Required
 -------------------
 Symbolic Z-matrix:
 Charge =  0 Multiplicity = 1

                         Standard orientation:
 ---------------------------------------------------------------------
 Center     Atomic      Atomic             Coordinates (Angstroms)
 Number     Number       Type             X           Y           Z
 ---------------------------------------------------------------------
      1         13           0       -0.000030   -0.000026   -0.035105
      2          1           0        1.184039   -1.073316    0.152116
      3          1           0        0.338011    1.561880    0.152089
      4          1           0       -1.521661   -0.488226    0.152158
 ---------------------------------------------------------------------

 SCF Done:  E(RHF) =  -242.280558027     A.U. after    8 cycles

 The electronic state is 1-A.
 Alpha  occ. eigenvalues --  -58.06237  -4.87394  -3.17755  -3.17619  -3.17619
 Alpha  occ. eigenvalues --   -0.57044  -0.42359  -0.42354
 Alpha virt. eigenvalues --    0.02482   0.17587   0.17594   0.19948   0.29067
 Alpha virt. eigenvalues --    0.37159   0.38635   0.38638   1.34141   1.37537
 Alpha virt. eigenvalues --    1.37538

 Mulliken charges:
               1
     1  Al   0.784800
     2  H   -0.261596
     3  H   -0.261614
     4  H   -0.261589
 Sum of Mulliken charges =   0.00000

 Dipole moment (field-independent basis, Debye):
    X=             -0.0010    Y=             -0.0009    Z=             -1.0673  Tot=              1.0673
 Quadrupole moment (field-independent basis, Debye-Ang):
   XX=            -19.4266   YY=            -19.4250   ZZ=            -11.6722
   XY=              0.0000   XZ=              0.0001   YZ=              0.0001

 Normal termination of Gaussian 16 at Tue Jun 17 15:31:15 2025.
