 Gaussian 16, Revision B.01,
 Gaussian 16:  EM64L-G16RevB.01 20-Dec-2017

 ----------------------------------------------
 # opt freq hf/3-21g pop=full geom=connectivity
 ----------------------------------------------

 -------------------
 Title Card Required
 -------------------
 Symbolic Z-matrix:
 Charge =  0 Multiplicity = 1

 SCF Done:  E(RHF) =  -582.934250804     A.U. after   10 cycles
 SCF Done:  E(RHF) =  -582.966880245     A.U. after   10 cycles
 SCF Done:  E(RHF) =  -582.991979546     A.U. after   11 cycles
 SCF Done:  E(RHF) =  -582.997483817     A.U. after    9 cycles
 SCF Done:  E(RHF) =  -583.001177604     A.U. after   10 cycles
 SCF Done:  E(RHF) =  -583.003113449     A.U. after    9 cycles
 SCF Done:  E(RHF) =  -583.005089807     A.U. after   10 cycles
 SCF Done:  E(RHF) =  -583.006556233     A.U. after    9 cycles
 SCF Done:  E(RHF) =  -583.007906152     A.U. after    9 cycles
 SCF Done:  E(RHF) =  -583.008495792     A.U. after    9 cycles
 SCF Done:  E(RHF) =  -583.008787926     A.U. after    8 cycles
 SCF Done:  E(RHF) =  -583.008832440     A.U. after    8 cycles
 SCF Done:  E(RHF) =  -583.008843505     A.U. after    8 cycles
 SCF Done:  E(RHF) =  -583.008849869     A.U. after    8 cycles
 SCF Done:  E(RHF) =  -583.008853138     A.U. after    8 cycles
 SCF Done:  E(RHF) =  -583.008854777     A.U. after    8 cycles
 SCF Done:  E(RHF) =  -583.008855075     A.U. after    7 cycles
 Optimization completed.
    -- Stationary point found.
 Normal termination of Gaussian 16 at Tue Jun 17 15:24:11 2025.

 --------------------------------------------------------------
 #N Geom=AllCheck Guess=TCheck SCRF=Check GenChk RHF/3-21G Freq
 --------------------------------------------------------------

 Structure from the checkpoint file:  "PH3_AlH3_adduct_opt.chk"
 -------------------
 Title Card Required
 -------------------
 Charge =  0 Multiplicity = 1

                         Standard orientation:
 ---------------------------------------------------------------------
 Center     Atomic      Atomic             Coordinates (Angstroms)
 Number     Number       Type             X           Y           Z
 ---------------------------------------------------------------------
      1         15           0        1.237325    0.000189   -0.000009
      2          1           0        1.894758    0.143704   -1.237879
      3          1           0        1.891895   -1.145438    0.494192
      4          1           0        1.894889    0.999264    0.744676
      5         13           0       -1.479983    0.000031   -0.000066
      6          1           0       -1.665826   -1.281386   -0.955290
      7          1           0       -1.667748   -0.187238    1.586925
      8          1           0       -1.668053    1.467865   -0.631623
 ---------------------------------------------------------------------

 SCF Done:  E(RHF) =  -583.008855075     A.U. after    1 cycles

 The electronic state is 1-A.
 Alpha  occ. eigenvalues --  -79.43696 -58.02619  -7.51234  -5.39707  -5.39707
 Alpha  occ. eigenvalues --   -5.39543  -4.83676  -3.14067  -3.13969  -3.13969
 Alpha  occ. eigenvalues --   -0.92459  -0.57885  -0.57882  -0.56456  -0.42864
 Alpha  occ. eigenvalues --   -0.39738  -0.39734
 Alpha virt. eigenvalues --    0.10585   0.14198   0.14204   0.20824   0.20826
 Alpha virt. eigenvalues --    0.22130   0.29095   0.32525   0.40827   0.41373
 Alpha virt. eigenvalues --    0.41377   0.58136   0.58139   0.59685   0.82852

 Mulliken charges:
               1
     1  P   -0.003343
     2  H    0.019162
     3  H    0.019168
     4  H    0.019131
     5  Al   0.795580
     6  H   -0.283277
     7  H   -0.283226
     8  H   -0.283196
 Sum of Mulliken charges =  -0.00000

 Dipole moment (field-independent basis, Debye):
    X=              4.2380    Y=              0.0007    Z=             -0.0000  Tot=              4.2380
 Quadrupole moment (field-independent basis, Debye-Ang):
   XX=            -30.0366   YY=            -34.8151   ZZ=            -34.8126
   XY=              0.0036   XZ=              0.0020   YZ=              0.0001

  Exact polarizability:  44.693   0.003  44.043  -0.011   0.000  44.037
 Approx polarizability:  32.044   0.004  37.446  -0.010   0.001  37.440

                      1                      2                      3
                      A                      A                      A
 Frequencies --     94.0968               193.8652               249.0801
 Red. masses --      1.0078                 8.7635                 1.0380
 Frc consts  --      0.0053                 0.1941                 0.0379
 IR Inten    --      0.0000                15.2609                 0.5119
 Raman Activ --      0.0000                 0.1613                 0.0026

                      4                      5                      6
                      A                      A                      A
 Frequencies --    249.3287               516.2476               516.5897
 Red. masses --      1.0380                 1.1204                 1.1204
 Frc consts  --      0.0380                 0.1759                 0.1762
 IR Inten    --      0.5084                10.3815                10.4093
 Raman Activ --      0.0024                30.1833                30.2064

                      7                      8                      9
                      A                      A                      A
 Frequencies --    757.0120               791.1008               791.2746
 Red. masses --      1.0872                 1.0586                 1.0586
 Frc consts  --      0.3671                 0.3903                 0.3905
 IR Inten    --    820.2664               288.0384               287.8669
 Raman Activ --      1.5769                27.1559                27.1961

                     10                     11                     12
                      A                      A                      A
 Frequencies --   1037.6978              1239.6875              1239.7490
 Red. masses --      1.0965                 1.0280                 1.0280
 Frc consts  --      0.6957                 0.9309                 0.9309
 IR Inten    --     16.7801                13.5481                13.5472
 Raman Activ --     14.0573                59.8602                59.8540

                     13                     14                     15
                      A                      A                      A
 Frequencies --   1932.3934              1932.5915              1946.4255
 Red. masses --      1.0575                 1.0576                 1.0088
 Frc consts  --      2.3267                 2.3272                 2.2519
 IR Inten    --    320.9866               320.9979                27.3943
 Raman Activ --     40.1779                40.1413               204.8997

                     16                     17                     18
                      A                      A                      A
 Frequencies --   2488.9406              2490.1640              2490.2498
 Red. masses --      1.0245                 1.0426                 1.0426
 Frc consts  --      3.7393                 3.8093                 3.8095
 IR Inten    --     16.3321                27.3929                27.3878
 Raman Activ --    223.7384               155.3587               155.4988

 - Thermochemistry -
 -------------------
 Temperature   298.150 Kelvin.  Pressure   1.00000 Atm.
 Atom     1 has atomic number 15 and mass  30.97376

 Molecular mass:    64.00225 amu.
 Principal axes and moments of inertia in atomic units:
                           1         2         3
     Eigenvalues --    44.35351 471.24871 471.25545
           X            1.00000  -0.00003  -0.00001
           Y            0.00003   1.00000   0.00002
           Z            0.00001  -0.00002   1.00000
 This molecule is an asymmetric top.
 Rotational symmetry number  1.
 Rotational temperatures (Kelvin)      1.95281     0.18380     0.18379
 Rotational constants (GHZ):          40.68993     3.82970     3.82965
 Zero-point vibrational energy     125347.7 (Joules/Mol)
                                   29.95881 (Kcal/Mol)
 Warning -- explicit consideration of   6 degrees of freedom as
           vibrations may cause significant error
 Vibrational temperatures:    135.38   278.93   358.37   358.73   742.77
          (Kelvin)            743.26  1089.17  1138.22  1138.47  1493.02
                             1783.63  1783.72  2780.28  2780.57  2800.47
                             3581.03  3582.79  3582.91

 Zero-point correction=                           0.047742 (Hartree/Particle)
 Thermal correction to Energy=                    0.053608
 Thermal correction to Enthalpy=                  0.054552
 Thermal correction to Gibbs Free Energy=         0.019632
 Sum of electronic and zero-point Energies=           -582.961113
 Sum of electronic and thermal Energies=              -582.955247
 Sum of electronic and thermal Enthalpies=            -582.954303
 Sum of electronic and thermal Free Energies=         -582.989223

                     E (Thermal)             CV                S
                      KCal/Mol        Cal/Mol-Kelvin    Cal/Mol-Kelvin
 Total                   33.639             18.523             73.494
 Electronic               0.000              0.000              0.000
 Translational            0.889              2.981             38.388
 Rotational               0.889              2.981             23.803
 Vibrational             31.862             12.561             11.303
 Vibration     1          0.603              1.953              3.573
 Vibration     2          0.635              1.848              2.191
 Vibration     3          0.662              1.764              1.737
 Vibration     4          0.662              1.764              1.735
 Vibration     5          0.871              1.214              0.619
 Vibration     6          0.872              1.213              0.618

                           ! Non-Optimized Parameters !
 Normal termination of Gaussian 16 at Tue Jun 17 15:24:12 2025.
