 Gaussian 16, Revision B.01,
 Gaussian 16:  EM64L-G16RevB.01 20-Dec-2017

 -------------------------------------
 # hf/3-21g pop=full geom=connectivity
 -------------------------------------

 -------------------
 Title Card Required
 -------------------
 Symbolic Z-matrix:
 Charge =  0 Multiplicity = 1

                         Standard orientation:
 ---------------------------------------------------------------------
 Center     Atomic      Atomic             Coordinates (Angstroms)
 Number     Number       Type             X           Y           Z
 ---------------------------------------------------------------------
      1         15           0        1.237325    0.000189   -0.000009
      2          1           0        1.894758    0.144576   -1.237778
      3          1           0        1.891895   -1.145786    0.493385
      4          1           0        1.894889    0.998739    0.745379
      5         13           0       -1.479983    0.000031   -0.000066
      6          1           0       -1.665826   -1.280713   -0.956193
      7          1           0       -1.667748   -0.188356    1.586792
      8          1           0       -1.668053    1.468309   -0.630589
 ---------------------------------------------------------------------

 SCF Done:  E(RHF) =  -583.008855075     A.U. after    9 cycles

 The electronic state is 1-A.
 Alpha  occ. eigenvalues --  -79.43696 -58.02619  -7.51234  -5.39707  -5.39707
 Alpha  occ. eigenvalues --   -5.39543  -4.83676  -3.14067  -3.13969  -3.13969
 Alpha  occ. eigenvalues --   -0.92459  -0.57885  -0.57882  -0.56456  -0.42864
 Alpha  occ. eigenvalues --   -0.39738  -0.39734
 Alpha virt. eigenvalues --    0.10585   0.14198   0.14204   0.20824   0.20826
 Alpha virt. eigenvalues --    0.22130   0.29095   0.32525   0.40827   0.41373
 Alpha virt. eigenvalues --    0.41377   0.58136   0.58139   0.59685   0.82852

 Mulliken charges:
               1
     1  P   -0.003343
     2  H    0.019162
     3  H    0.019168
     4  H    0.019131
     5  Al   0.795580
     6  H   -0.283277
     7  H   -0.283226
     8  H   -0.283196
 Sum of Mulliken charges =   0.00000

 Dipole moment (field-independent basis, Debye):
    X=              4.2380    Y=              0.0008    Z=             -0.0000  Tot=              4.2380
 Quadrupole moment (field-independent basis, Debye-Ang):
   XX=            -30.0366   YY=            -34.8151   ZZ=            -34.8126
   XY=              0.0036   XZ=              0.0020   YZ=              0.0001

 Normal termination of Gaussian 16 at Tue Jun 17 15:24:51 2025.
