 Gaussian 16, Revision B.01,
 Gaussian 16:  EM64L-G16RevB.01 20-Dec-2017

 -------------------------------------
 # hf/3-21g pop=full geom=connectivity
 -------------------------------------

 -------------------
 Title Card Required
 -------------------
 Symbolic Z-matrix:
 Charge =  0 Multiplicity = 1

                         Standard orientation:
 ---------------------------------------------------------------------
 Center     Atomic      Atomic             Coordinates (Angstroms)
 Number     Number       Type             X           Y           Z
 ---------------------------------------------------------------------
      1         15           0        0.000019   -0.000002   -0.109421
      2          1           0       -0.631048   -1.075141    0.547060
      3          1           0       -0.615798    1.083964    0.547045
      4          1           0        1.246560   -0.008795    0.547203
 ---------------------------------------------------------------------

 SCF Done:  E(RHF) =  -340.703170617     A.U. after    9 cycles

 The electronic state is 1-A.
 Alpha  occ. eigenvalues --  -79.38169  -7.45747  -5.34215  -5.34215  -5.33892
 Alpha  occ. eigenvalues --   -0.87611  -0.53667  -0.53665  -0.36902
 Alpha virt. eigenvalues --    0.18910   0.18912   0.25745   0.60050   0.60050
 Alpha virt. eigenvalues --    0.62834   0.67913   1.20350   1.26922   1.26923

 Mulliken charges:
               1
     1  P    0.095899
     2  H   -0.031967
     3  H   -0.031966
     4  H   -0.031965
 Sum of Mulliken charges =   0.00000

 Dipole moment (field-independent basis, Debye):
    X=             -0.0000    Y=              0.0000    Z=              1.3664  Tot=              1.3664
 Quadrupole moment (field-independent basis, Debye-Ang):
   XX=            -15.1577   YY=            -15.1580   ZZ=            -18.2518
   XY=              0.0000   XZ=              0.0003   YZ=             -0.0000

 Normal termination of Gaussian 16 at Tue Jun 17 15:32:22 2025.
