 Gaussian 16, Revision B.01,
 Gaussian 16:  EM64L-G16RevB.01 20-Dec-2017

 -----------------------------------------
 # opt freq am1 pop=full geom=connectivity
 -----------------------------------------

 --------------------------
 Methyl Napthalene opt+Freq
 --------------------------
 Symbolic Z-matrix:
 Charge =  0 Multiplicity = 1

 SCF Done:  E(RAM1) =  0.610671301337E-01 A.U. after   15 cycles
 SCF Done:  E(RAM1) =  0.531264548843E-01 A.U. after   13 cycles
 SCF Done:  E(RAM1) =  0.522445664662E-01 A.U. after   12 cycles
 SCF Done:  E(RAM1) =  0.521653150024E-01 A.U. after   12 cycles
 SCF Done:  E(RAM1) =  0.521634777845E-01 A.U. after   11 cycles
 Optimization completed.
    -- Stationary point found.
 Normal termination of Gaussian 16 at Thu Jun 12 22:11:36 2025.

 -------------------------------------------------------------
 #N Geom=AllCheck Guess=TCheck SCRF=Check GenChk RAM1/ZDO Freq
 -------------------------------------------------------------

 Structure from the checkpoint file:  "methToluene.chk"
 --------------------------
 Methyl Napthalene opt+Freq
 --------------------------
 Charge =  0 Multiplicity = 1

                         Standard orientation:
 ---------------------------------------------------------------------
 Center     Atomic      Atomic             Coordinates (Angstroms)
 Number     Number       Type             X           Y           Z
 ---------------------------------------------------------------------
      1          6           0       -2.697681   -1.038989   -0.000001
      2          6           0       -1.408837   -1.513142   -0.000004
      3          6           0       -0.308512   -0.612461   -0.000003
      4          6           0       -0.559618    0.783246    0.000001
      5          6           0       -1.903182    1.246567    0.000004
      6          6           0       -2.947643    0.354701    0.000002
      7          1           0        1.213930   -2.163379   -0.000010
      8          1           0       -3.550449   -1.733815   -0.000002
      9          1           0       -1.205076   -2.594335   -0.000006
     10          6           0        1.034578   -1.077472   -0.000006
     11          6           0        0.543203    1.681564    0.000002
     12          1           0       -2.086971    2.331346    0.000007
     13          1           0       -3.988553    0.710157    0.000004
     14          6           0        1.829668    1.207701   -0.000001
     15          6           0        2.088183   -0.191066   -0.000004
     16          1           0        0.340899    2.763219    0.000004
     17          1           0        2.684304    1.900719   -0.000001
     18          6           0        3.493823   -0.656393    0.000004
     19          1           0        4.027039   -0.273516   -0.905884
     20          1           0        4.026889   -0.273905    0.906147
     21          1           0        3.554107   -1.772027   -0.000229
 ---------------------------------------------------------------------

 SCF Done:  E(RAM1) =  0.521634777841E-01 A.U. after    2 cycles

 The electronic state is 1-A.
 Alpha  occ. eigenvalues --   -1.48907  -1.36641  -1.22661  -1.18163  -1.10198
 Alpha  occ. eigenvalues --   -1.00812  -0.87907  -0.83257  -0.82588  -0.66619
 Alpha  occ. eigenvalues --   -0.64292  -0.61294  -0.56755  -0.55335  -0.53998
 Alpha  occ. eigenvalues --   -0.52926  -0.51486  -0.50197  -0.49796  -0.47890
 Alpha  occ. eigenvalues --   -0.45759  -0.43563  -0.42874  -0.42440  -0.38895
 Alpha  occ. eigenvalues --   -0.33778  -0.31728
 Alpha virt. eigenvalues --   -0.00857   0.00677   0.04558   0.07688   0.12032
 Alpha virt. eigenvalues --    0.13483   0.14251   0.14587   0.14671   0.14840
 Alpha virt. eigenvalues --    0.15594   0.15797   0.16398   0.16561   0.16574

 Mulliken charges:
               1
     1  C   -0.127211
     2  C   -0.118794
     3  C   -0.032287
     4  C   -0.040439
     5  C   -0.116101
     6  C   -0.129693
     7  H    0.132156
     8  H    0.131203
     9  H    0.131690
    10  C   -0.120111
    11  C   -0.114922
    12  H    0.131541
    13  H    0.131290
    14  C   -0.126780
    15  C   -0.067447
    16  H    0.131867
    17  H    0.131650
    18  C   -0.179507
    19  H    0.085436
    20  H    0.085438
    21  H    0.081022
 Sum of Mulliken charges =  -0.00000

 Dipole moment (field-independent basis, Debye):
    X=              0.3114    Y=             -0.0182    Z=              0.0000  Tot=              0.3119
 N-N= 2.961503466814D+02 E-N=-4.676668132203D+02  KE=-8.691431153735D+01
 Orbital energies and kinetic energies (alpha):
                                 1                 2
   1         O                -1.489067         -2.525060
   2         O                -1.366413         -2.373480
   3         O                -1.226615         -2.211336
   4         O                -1.181633         -2.160396
   5         O                -1.101982         -2.081025
   6         O                -1.008121         -1.921587
   7         O                -0.879067         -1.830588

  Exact polarizability: 164.404   5.943 113.173   0.000   0.000  22.903
 Approx polarizability: 130.632   4.850 101.462   0.000   0.000  16.623

                      1                      2                      3
                      A                      A                      A
 Frequencies --     36.2475               108.7327               163.8178
 Red. masses --      1.0272                 3.4225                 3.4465
 Frc consts  --      0.0008                 0.0238                 0.0545
 IR Inten    --      0.2267                 0.9455                 0.7470

                      4                      5                      6
                      A                      A                      A
 Frequencies --    261.0892               286.8882               358.3393
 Red. masses --      3.2088                 3.0381                 2.5411
 Frc consts  --      0.1289                 0.1473                 0.1922
 IR Inten    --      0.1552                 0.5137                 0.1793

                      7                      8                      9
                      A                      A                      A
 Frequencies --    446.5450               474.3729               485.9052
 Red. masses --      3.7252                 2.2960                 2.4918
 Frc consts  --      0.4377                 0.3044                 0.3466
 IR Inten    --      0.3547                23.3836                 0.4745

                     10                     11                     12
                      A                      A                      A
 Frequencies --    492.5633               558.3184               588.0824
 Red. masses --      5.1544                 6.7491                 2.2733
 Frc consts  --      0.7368                 1.2395                 0.4632
 IR Inten    --      0.0389                 0.0100                 3.7325

                     13                     14                     15
                      A                      A                      A
 Frequencies --    665.3830               750.8264               782.2187
 Red. masses --      6.7331                 2.3991                 5.3185
 Frc consts  --      1.7564                 0.7969                 1.9173
 IR Inten    --      0.7898                 0.0001                 1.0458

                     16                     17                     18
                      A                      A                      A
 Frequencies --    800.2537               872.2236               905.5100
 Red. masses --      1.2081                 1.3504                 1.3805
 Frc consts  --      0.4558                 0.6053                 0.6669
 IR Inten    --     34.7452                60.1839                12.5955

                     19                     20                     21
                      A                      A                      A
 Frequencies --    935.9364               944.6359               968.3321
 Red. masses --      4.9343                 1.6595                 3.8358
 Frc consts  --      2.5466                 0.8725                 2.1191
 IR Inten    --      0.1428                 2.6351                 0.2553

                     22                     23                     24
                      A                      A                      A
 Frequencies --    972.4448               988.8509              1003.0687
 Red. masses --      1.5315                 1.6015                 1.7550
 Frc consts  --      0.8533                 0.9226                 1.0404
 IR Inten    --      3.6272                 6.6900                 0.0212

                     25                     26                     27
                      A                      A                      A
 Frequencies --   1045.3820              1075.7743              1109.0605
 Red. masses --      1.3729                 1.5531                 1.9446
 Frc consts  --      0.8840                 1.0590                 1.4092
 IR Inten    --      1.8705                 4.9237                 0.0034

                     28                     29                     30
                      A                      A                      A
 Frequencies --   1170.6320              1194.3933              1208.2139
 Red. masses --      1.4019                 1.2102                 1.0619
 Frc consts  --      1.1319                 1.0172                 0.9133
 IR Inten    --      0.5183                 1.0177                 0.0177

                     31                     32                     33
                      A                      A                      A
 Frequencies --   1211.0322              1264.8221              1297.3966
 Red. masses --      1.0582                 1.3178                 1.7031
 Frc consts  --      0.9144                 1.2421                 1.6890
 IR Inten    --      0.2211                 1.7188                 2.8556

                     34                     35                     36
                      A                      A                      A
 Frequencies --   1320.2447              1358.4424              1381.0911
 Red. masses --      1.2625                 3.2287                 1.1603
 Frc consts  --      1.2965                 3.5104                 1.3040
 IR Inten    --      0.7239                 0.4326                 1.7077

                     37                     38                     39
                      A                      A                      A
 Frequencies --   1384.1072              1440.3780              1452.3858
 Red. masses --      1.0678                 1.3617                 4.0900
 Frc consts  --      1.2053                 1.6645                 5.0832
 IR Inten    --      2.6086                 1.7289                13.2964

                     40                     41                     42
                      A                      A                      A
 Frequencies --   1502.2009              1563.8178              1611.4990
 Red. masses --      3.9625                 4.9505                 8.8475
 Frc consts  --      5.2684                 7.1330                13.5372
 IR Inten    --      7.7308                 1.7333                 0.4776

                     43                     44                     45
                      A                      A                      A
 Frequencies --   1649.1092              1694.4843              1758.3102
 Red. masses --      7.9225                 8.7583                10.4366
 Frc consts  --     12.6944                14.8165                19.0108
 IR Inten    --      1.3944                 4.0412                 0.0385

                     46                     47                     48
                      A                      A                      A
 Frequencies --   1799.0308              1813.8806              3046.9728
 Red. masses --     10.1653                10.5757                 1.0895
 Frc consts  --     19.3843                20.5011                 5.9598
 IR Inten    --      1.7906                 4.2047                 1.9521

                     49                     50                     51
                      A                      A                      A
 Frequencies --   3058.2170              3148.9245              3181.1912
 Red. masses --      1.0909                 1.0284                 1.0760
 Frc consts  --      6.0114                 6.0080                 6.4159
 IR Inten    --      1.9949                 2.0432                24.7229

                     52                     53                     54
                      A                      A                      A
 Frequencies --   3181.6731              3182.8641              3183.9836
 Red. masses --      1.0763                 1.0794                 1.0761
 Frc consts  --      6.4196                 6.4428                 6.4273
 IR Inten    --      5.7025                36.0080                14.2718

                     55                     56                     57
                      A                      A                      A
 Frequencies --   3189.8479              3192.3000              3198.5926
 Red. masses --      1.0807                 1.0848                 1.0881
 Frc consts  --      6.4788                 6.5134                 6.5592
 IR Inten    --     58.1498                39.7206                49.8650

 - Thermochemistry -
 -------------------
 Temperature   298.150 Kelvin.  Pressure   1.00000 Atm.
 Atom     1 has atomic number  6 and mass  12.00000

 Molecular mass:   142.07825 amu.
 Principal axes and moments of inertia in atomic units:
                           1         2         3
     Eigenvalues --   643.534322176.642602808.35974
           X            0.99997  -0.00818  -0.00000
           Y            0.00818   0.99997  -0.00000
           Z            0.00000   0.00000   1.00000
 This molecule is an asymmetric top.
 Rotational symmetry number  1.
 Warning -- assumption of classical behavior for rotation
           may cause significant error
 Rotational temperatures (Kelvin)      0.13459     0.03979     0.03084
 Rotational constants (GHZ):           2.80442     0.82914     0.64263
 Zero-point vibrational energy     470855.2 (Joules/Mol)
                                  112.53709 (Kcal/Mol)
 Warning -- explicit consideration of  12 degrees of freedom as
           vibrations may cause significant error
 Vibrational temperatures:     52.15   156.44   235.70   375.65   412.77
          (Kelvin)            515.57   642.48   682.52   699.11   708.69
                              803.30   846.12   957.34  1080.27  1125.44
                             1151.39  1254.94  1302.83  1346.60  1359.12
                             1393.21  1399.13  1422.74  1443.19  1504.07
                             1547.80  1595.69  1684.28  1718.47  1738.35
                             1742.41  1819.80  1866.66  1899.54  1954.50
                             1987.08  1991.42  2072.38  2089.66  2161.33
                             2249.98  2318.59  2372.70  2437.98  2529.82
                             2588.40  2609.77  4383.91  4400.09  4530.60
                             4577.02  4577.72  4579.43  4581.04  4589.48
                             4593.01  4602.06

 Zero-point correction=                           0.179339 (Hartree/Particle)
 Thermal correction to Energy=                    0.187949
 Thermal correction to Enthalpy=                  0.188893
 Thermal correction to Gibbs Free Energy=         0.144940
 Sum of electronic and zero-point Energies=              0.231503
 Sum of electronic and thermal Energies=                 0.240112
 Sum of electronic and thermal Enthalpies=               0.241057
 Sum of electronic and thermal Free Energies=            0.197103

                     E (Thermal)             CV                S
                      KCal/Mol        Cal/Mol-Kelvin    Cal/Mol-Kelvin
 Total                  117.940             33.711             92.508
 Electronic               0.000              0.000              0.000
 Translational            0.889              2.981             40.765
 Rotational               0.889              2.981             29.754
 Vibrational            116.162             27.749             21.988
 Vibration     1          0.594              1.982              5.454
 Vibration     2          0.606              1.942              3.291
 Vibration     3          0.623              1.887              2.505
 Vibration     4          0.669              1.744              1.654
 Vibration     5          0.684              1.698              1.492
 Vibration     6          0.733              1.558              1.129
 Vibration     7          0.806              1.369              0.806
 Vibration     8          0.831              1.307              0.725
 Vibration     9          0.842              1.281              0.694
 Vibration    10          0.848              1.267              0.677
 Vibration    11          0.914              1.122              0.527
 Vibration    12          0.945              1.057              0.471

 Optimization completed.
    -- Stationary point found.
 Normal termination of Gaussian 16 at Thu Jun 12 22:11:37 2025.
