 Gaussian 16, Revision B.01,
 Gaussian 16:  EM64L-G16RevB.01 20-Dec-2017

 -----------------------------------------
 # opt freq am1 pop=full geom=connectivity
 -----------------------------------------

 ------------
 Optimisation
 ------------
 Symbolic Z-matrix:
 Charge =  0 Multiplicity = 1

 SCF Done:  E(RAM1) =  0.889557507800E-01 A.U. after   13 cycles
 SCF Done:  E(RAM1) =  0.795267577014E-01 A.U. after   13 cycles
 SCF Done:  E(RAM1) =  0.786481565525E-01 A.U. after   12 cycles
 SCF Done:  E(RAM1) =  0.784629039421E-01 A.U. after   12 cycles
 SCF Done:  E(RAM1) =  0.782640513364E-01 A.U. after   13 cycles
 SCF Done:  E(RAM1) =  0.782042366439E-01 A.U. after   12 cycles
 SCF Done:  E(RAM1) =  0.781278135203E-01 A.U. after   13 cycles
 SCF Done:  E(RAM1) =  0.780628564112E-01 A.U. after   13 cycles
 SCF Done:  E(RAM1) =  0.780552005434E-01 A.U. after   13 cycles
 SCF Done:  E(RAM1) =  0.780535090281E-01 A.U. after   11 cycles
 SCF Done:  E(RAM1) =  0.780528727453E-01 A.U. after   11 cycles
 SCF Done:  E(RAM1) =  0.780525680585E-01 A.U. after   11 cycles
 SCF Done:  E(RAM1) =  0.780523241333E-01 A.U. after   12 cycles
 SCF Done:  E(RAM1) =  0.780522829950E-01 A.U. after   10 cycles
 SCF Done:  E(RAM1) =  0.780522578735E-01 A.U. after   10 cycles
 Optimization completed.
    -- Stationary point found.
 Normal termination of Gaussian 16 at Thu Jun 12 22:16:02 2025.

 -------------------------------------------------------------
 #N Geom=AllCheck Guess=TCheck SCRF=Check GenChk RAM1/ZDO Freq
 -------------------------------------------------------------

 Structure from the checkpoint file:  "Meth_napthalene_isomer_optfreq.chk"
 ------------
 Optimisation
 ------------
 Charge =  0 Multiplicity = 1

                         Standard orientation:
 ---------------------------------------------------------------------
 Center     Atomic      Atomic             Coordinates (Angstroms)
 Number     Number       Type             X           Y           Z
 ---------------------------------------------------------------------
      1          6           0        2.917413    0.398156    0.000127
      2          6           0        1.836866    1.273943    0.000062
      3          6           0        0.524107    0.779500   -0.000050
      4          6           0        0.302574   -0.609376   -0.000083
      5          6           0        1.399212   -1.480752   -0.000029
      6          6           0        2.698170   -0.981097    0.000068
      7          1           0       -0.392157    2.761270   -0.000197
      8          1           0        3.944472    0.791174    0.000242
      9          1           0        2.006604    2.360987    0.000101
     10          6           0       -0.610333    1.681851   -0.000109
     11          6           0       -1.070878   -1.181256   -0.000206
     12          1           0        1.227399   -2.567482   -0.000063
     13          1           0        3.552937   -1.673158    0.000084
     14          6           0       -2.192837   -0.195188    0.000016
     15          6           0       -1.874271    1.222648   -0.000056
     16          1           0       -2.729116    1.918501   -0.000059
     17          6           0       -3.465677   -0.621998    0.000249
     18          1           0       -4.316793    0.069901    0.000414
     19          1           0       -3.724083   -1.688038    0.000299
     20          1           0       -1.177663   -1.845642   -0.904593
     21          1           0       -1.177669   -1.846094    0.903843
 ---------------------------------------------------------------------

 SCF Done:  E(RAM1) =  0.780522578746E-01 A.U. after    2 cycles

 The electronic state is 1-A.
 Alpha  occ. eigenvalues --   -1.48433  -1.36280  -1.23320  -1.18331  -1.10633
 Alpha  occ. eigenvalues --   -0.99598  -0.87767  -0.83693  -0.80730  -0.67265
 Alpha  occ. eigenvalues --   -0.64073  -0.61170  -0.57080  -0.55927  -0.55669
 Alpha  occ. eigenvalues --   -0.53427  -0.51006  -0.49977  -0.48372  -0.48035
 Alpha  occ. eigenvalues --   -0.45596  -0.43482  -0.43321  -0.41963  -0.37549
 Alpha  occ. eigenvalues --   -0.34887  -0.31045
 Alpha virt. eigenvalues --   -0.01037   0.01794   0.03585   0.08052   0.10996
 Alpha virt. eigenvalues --    0.12848   0.14146   0.14312   0.14657   0.14809
 Alpha virt. eigenvalues --    0.15170   0.16071   0.16184   0.16441   0.16750

 Mulliken charges:
               1
     1  C   -0.135171
     2  C   -0.113106
     3  C   -0.044284
     4  C   -0.051577
     5  C   -0.134974
     6  C   -0.121962
     7  H    0.130867
     8  H    0.131631
     9  H    0.131888
    10  C   -0.111814
    11  C   -0.092672
    12  H    0.130646
    13  H    0.131155
    14  C   -0.069216
    15  C   -0.121443
    16  H    0.128789
    17  C   -0.221368
    18  H    0.115992
    19  H    0.113756
    20  H    0.101433
    21  H    0.101430
 Sum of Mulliken charges =   0.00000

 Dipole moment (field-independent basis, Debye):
    X=              0.0028    Y=             -0.2282    Z=             -0.0001  Tot=              0.2282
 N-N= 2.970992306651D+02 E-N=-4.695406411792D+02  KE=-8.692916227854D+01
 Orbital energies and kinetic energies (alpha):
                                 1                 2
   1         O                -1.484326         -2.512671
   2         O                -1.362796         -2.370045
   3         O                -1.233201         -2.213581
   4         O                -1.183308         -2.179500
   5         O                -1.106333         -2.081976
   6         O                -0.995981         -1.928998
   7         O                -0.877671         -1.828235

  Exact polarizability: 184.562   9.610 106.703  -0.004  -0.000  23.122
 Approx polarizability: 129.948   9.865  89.656  -0.002  -0.001  17.023

                      1                      2                      3
                      A                      A                      A
 Frequencies --     17.3794               124.9071               202.3068
 Red. masses --      2.8828                 2.8038                 3.3173
 Frc consts  --      0.0005                 0.0258                 0.0800
 IR Inten    --      0.1715                 0.0958                 2.6265

                      4                      5                      6
                      A                      A                      A
 Frequencies --    310.1636               316.3448               419.5881
 Red. masses --      3.1406                 2.5458                 2.1952
 Frc consts  --      0.1780                 0.1501                 0.2277
 IR Inten    --      0.0605                 3.9936                17.1750

                      7                      8                      9
                      A                      A                      A
 Frequencies --    434.1229               474.2823               486.6007
 Red. masses --      3.8210                 4.6809                 2.3880
 Frc consts  --      0.4243                 0.6204                 0.3331
 IR Inten    --      0.2750                 0.6889                 2.1593

                     10                     11                     12
                      A                      A                      A
 Frequencies --    547.3865               553.7089               608.3582
 Red. masses --      1.7112                 5.6934                 1.2999
 Frc consts  --      0.3021                 1.0284                 0.2835
 IR Inten    --      0.0076                 0.2144                 1.4133

                     13                     14                     15
                      A                      A                      A
 Frequencies --    644.9382               699.2057               787.1777
 Red. masses --      6.2076                 2.1619                 5.8372
 Frc consts  --      1.5213                 0.6227                 2.1311
 IR Inten    --      1.5032                 5.5033                 1.1408

                     16                     17                     18
                      A                      A                      A
 Frequencies --    804.9308               867.3922               915.0927
 Red. masses --      1.2008                 1.4060                 1.4498
 Frc consts  --      0.4584                 0.6233                 0.7153
 IR Inten    --     49.2268                36.1945                 7.5206

                     19                     20                     21
                      A                      A                      A
 Frequencies --    917.3074               934.0888               955.9619
 Red. masses --      3.6594                 4.9418                 1.5760
 Frc consts  --      1.8142                 2.5404                 0.8486
 IR Inten    --      0.2401                 0.2244                 0.0627

                     22                     23                     24
                      A                      A                      A
 Frequencies --    984.5806               994.5971              1003.7217
 Red. masses --      1.6223                 1.7223                 1.5538
 Frc consts  --      0.9266                 1.0038                 0.9223
 IR Inten    --      5.5190                 0.4086                 0.4030

                     25                     26                     27
                      A                      A                      A
 Frequencies --   1007.2005              1044.4993              1051.3327
 Red. masses --      1.8878                 1.4424                 2.0124
 Frc consts  --      1.1283                 0.9272                 1.3105
 IR Inten    --      1.0201                51.3695                 0.1002

                     28                     29                     30
                      A                      A                      A
 Frequencies --   1176.6700              1178.4829              1188.9438
 Red. masses --      1.0982                 1.3274                 1.2389
 Frc consts  --      0.8958                 1.0862                 1.0319
 IR Inten    --      0.0528                 0.5658                 0.6164

                     31                     32                     33
                      A                      A                      A
 Frequencies --   1199.7701              1214.9550              1287.2602
 Red. masses --      1.1179                 1.0663                 1.2655
 Frc consts  --      0.9481                 0.9273                 1.2355
 IR Inten    --      0.3384                 0.3929                 0.0585

                     34                     35                     36
                      A                      A                      A
 Frequencies --   1325.9660              1336.5432              1359.6447
 Red. masses --      1.3067                 1.6854                 1.1506
 Frc consts  --      1.3536                 1.7738                 1.2532
 IR Inten    --      0.7489                 0.7751                 3.1657

                     37                     38                     39
                      A                      A                      A
 Frequencies --   1390.7635              1411.4285              1423.7498
 Red. masses --      4.2955                 2.8166                 1.3418
 Frc consts  --      4.8952                 3.3059                 1.6025
 IR Inten    --      0.6244                 1.8738                 2.5349

                     40                     41                     42
                      A                      A                      A
 Frequencies --   1488.2540              1520.5604              1608.3617
 Red. masses --      3.3856                 5.6740                 6.7866
 Frc consts  --      4.4182                 7.7294                10.3435
 IR Inten    --     11.7439                 2.9875                 4.9214

                     43                     44                     45
                      A                      A                      A
 Frequencies --   1666.1053              1765.6617              1782.5761
 Red. masses --      7.1671                10.2870                10.8531
 Frc consts  --     11.7219                18.8953                20.3189
 IR Inten    --      4.8178                 1.0445                 0.1409

                     46                     47                     48
                      A                      A                      A
 Frequencies --   1846.8812              1863.0935              2980.1558
 Red. masses --      9.6540                10.3432                 1.0889
 Frc consts  --     19.4015                21.1532                 5.6977
 IR Inten    --      0.0664                 0.3330                 4.6657

                     49                     50                     51
                      A                      A                      A
 Frequencies --   3058.1542              3168.4574              3182.6312
 Red. masses --      1.0482                 1.0752                 1.0929
 Frc consts  --      5.7756                 6.3599                 6.5223
 IR Inten    --      4.8950                39.8665                 1.6679

                     52                     53                     54
                      A                      A                      A
 Frequencies --   3182.9971              3183.2971              3185.2525
 Red. masses --      1.0875                 1.0852                 1.0768
 Frc consts  --      6.4914                 6.4790                 6.4369
 IR Inten    --      3.5570                35.6996                 9.6398

                     55                     56                     57
                      A                      A                      A
 Frequencies --   3190.4724              3199.9194              3219.1054
 Red. masses --      1.0799                 1.0880                 1.0529
 Frc consts  --      6.4766                 6.5638                 6.4286
 IR Inten    --     62.8155                58.9474                60.1064

 - Thermochemistry -
 -------------------
 Temperature   298.150 Kelvin.  Pressure   1.00000 Atm.
 Atom     1 has atomic number  6 and mass  12.00000

 Molecular mass:   142.07825 amu.
 Principal axes and moments of inertia in atomic units:
                           1         2         3
     Eigenvalues --   654.125912138.712642781.06818
           X            0.99998   0.00671  -0.00000
           Y           -0.00671   0.99998   0.00000
           Z            0.00000  -0.00000   1.00000
 This molecule is an asymmetric top.
 Rotational symmetry number  1.
 Warning -- assumption of classical behavior for rotation
           may cause significant error
 Rotational temperatures (Kelvin)      0.13241     0.04050     0.03114
 Rotational constants (GHZ):           2.75901     0.84384     0.64894
 Zero-point vibrational energy     470690.4 (Joules/Mol)
                                  112.49771 (Kcal/Mol)
 Warning -- explicit consideration of  12 degrees of freedom as
           vibrations may cause significant error
 Vibrational temperatures:     25.01   179.71   291.07   446.26   455.15
          (Kelvin)            603.69   624.61   682.39   700.11   787.57
                              796.66   875.29   927.92  1006.00  1132.57
                             1158.12  1247.98  1316.61  1319.80  1343.95
                             1375.42  1416.59  1431.00  1444.13  1449.14
                             1502.80  1512.63  1692.97  1695.57  1710.63
                             1726.20  1748.05  1852.08  1907.77  1922.99
                             1956.23  2001.00  2030.73  2048.46  2141.27
                             2187.75  2314.07  2397.15  2540.39  2564.73
                             2657.25  2680.58  4287.78  4400.00  4558.70
                             4579.10  4579.62  4580.05  4582.87  4590.38
                             4603.97  4631.57

 Zero-point correction=                           0.179277 (Hartree/Particle)
 Thermal correction to Energy=                    0.187689
 Thermal correction to Enthalpy=                  0.188634
 Thermal correction to Gibbs Free Energy=         0.144621
 Sum of electronic and zero-point Energies=              0.257329
 Sum of electronic and thermal Energies=                 0.265742
 Sum of electronic and thermal Enthalpies=               0.266686
 Sum of electronic and thermal Free Energies=            0.222673

                     E (Thermal)             CV                S
                      KCal/Mol        Cal/Mol-Kelvin    Cal/Mol-Kelvin
 Total                  117.777             33.598             92.632
 Electronic               0.000              0.000              0.000
 Translational            0.889              2.981             40.765
 Rotational               0.889              2.981             29.743
 Vibrational            115.999             27.636             22.124
 Vibration     1          0.593              1.986              6.913
 Vibration     2          0.610              1.928              3.023
 Vibration     3          0.639              1.837              2.112
 Vibration     4          0.699              1.654              1.361
 Vibration     5          0.703              1.642              1.329
 Vibration     6          0.782              1.428              0.893
 Vibration     7          0.795              1.396              0.845
 Vibration     8          0.831              1.307              0.726
 Vibration     9          0.843              1.280              0.692
 Vibration    10          0.903              1.145              0.550
 Vibration    11          0.909              1.132              0.537
 Vibration    12          0.967              1.014              0.436

 Optimization completed.
    -- Stationary point found.
 Normal termination of Gaussian 16 at Thu Jun 12 22:16:02 2025.
