 Gaussian 16, Revision B.01,
 Gaussian 16:  EM64L-G16RevB.01 20-Dec-2017

 -------------------------------------
 # hf/3-21g pop=full geom=connectivity
 -------------------------------------

 -------------------
 Title Card Required
 -------------------
 Symbolic Z-matrix:
 Charge =  0 Multiplicity = 1

                         Standard orientation:
 ---------------------------------------------------------------------
 Center     Atomic      Atomic             Coordinates (Angstroms)
 Number     Number       Type             X           Y           Z
 ---------------------------------------------------------------------
      1          5           0        0.000000   -0.000000    0.000000
      2          1           0        0.000000    1.188199    0.000000
      3          1           0       -1.029010   -0.594099    0.000000
      4          1           0        1.029010   -0.594099    0.000000
 ---------------------------------------------------------------------

 SCF Done:  E(RHF) =  -26.2373012792     A.U. after    8 cycles

 The electronic state is 1-A1'.
 Alpha  occ. eigenvalues --   -7.57468  -0.70668  -0.49952  -0.49952
 Alpha virt. eigenvalues --    0.07707   0.32325   0.32325   0.34818   0.59852
 Alpha virt. eigenvalues --    0.59852   0.68503   0.77759   1.36671   1.42894
 Alpha virt. eigenvalues --    1.42894

 Mulliken charges:
               1
     1  B    0.129185
     2  H   -0.043062
     3  H   -0.043062
     4  H   -0.043062
 Sum of Mulliken charges =   0.00000

 Dipole moment (field-independent basis, Debye):
    X=              0.0000    Y=              0.0000    Z=             -0.0000  Tot=              0.0000
 Quadrupole moment (field-independent basis, Debye-Ang):
   XX=             -9.7038   YY=             -9.7038   ZZ=             -7.2198
   XY=              0.0000   XZ=             -0.0000   YZ=              0.0000

 Normal termination of Gaussian 16 at Fri Jun 13 20:23:23 2025.
