 Gaussian 16, Revision B.01,
 Gaussian 16:  EM64L-G16RevB.01 20-Dec-2017

 ----------------------------------------------
 # opt freq hf/3-21g pop=full geom=connectivity
 ----------------------------------------------

 -------------------
 Title Card Required
 -------------------
 Symbolic Z-matrix:
 Charge =  0 Multiplicity = 1

 SCF Done:  E(RHF) =  -26.2372138588     A.U. after    8 cycles
 SCF Done:  E(RHF) =  -26.2373012794     A.U. after    7 cycles
 Optimization completed.
    -- Stationary point found.
 Normal termination of Gaussian 16 at Fri Jun 13 20:22:47 2025.

 --------------------------------------------------------------
 #N Geom=AllCheck Guess=TCheck SCRF=Check GenChk RHF/3-21G Freq
 --------------------------------------------------------------

 Structure from the checkpoint file:  "BH3_opt.chk"
 -------------------
 Title Card Required
 -------------------
 Charge =  0 Multiplicity = 1

                         Standard orientation:
 ---------------------------------------------------------------------
 Center     Atomic      Atomic             Coordinates (Angstroms)
 Number     Number       Type             X           Y           Z
 ---------------------------------------------------------------------
      1          5           0        0.000000    0.000000    0.000000
      2          1           0        0.000000    1.188199    0.000000
      3          1           0       -1.029010   -0.594099    0.000000
      4          1           0        1.029010   -0.594099    0.000000
 ---------------------------------------------------------------------

 SCF Done:  E(RHF) =  -26.2373012794     A.U. after    1 cycles

 Unable to determine electronic state:  an orbital has unidentified symmetry.
 Alpha  occ. eigenvalues --   -7.57468  -0.70668  -0.49952  -0.49952
 Alpha virt. eigenvalues --    0.07707   0.32325   0.32325   0.34818   0.59852
 Alpha virt. eigenvalues --    0.59852   0.68503   0.77759   1.36671   1.42894
 Alpha virt. eigenvalues --    1.42894

 Mulliken charges:
               1
     1  B    0.129185
     2  H   -0.043062
     3  H   -0.043062
     4  H   -0.043062
 Sum of Mulliken charges =  -0.00000

 Dipole moment (field-independent basis, Debye):
    X=              0.0000    Y=              0.0000    Z=             -0.0000  Tot=              0.0000
 Quadrupole moment (field-independent basis, Debye-Ang):
   XX=             -9.7038   YY=             -9.7038   ZZ=             -7.2198
   XY=              0.0000   XZ=             -0.0000   YZ=              0.0000

  Exact polarizability:  14.823   0.000  14.823   0.000  -0.000   7.032
 Approx polarizability:  11.670   0.000  11.670   0.000  -0.000   5.189

                      1                      2                      3
                     A2"                    ?A                     ?A
 Frequencies --   1211.5253              1293.6380              1293.6380
 Red. masses --      1.2531                 1.1087                 1.1087
 Frc consts  --      1.0837                 1.0932                 1.0932
 IR Inten    --    145.7554                25.3782                25.3782
 Raman Activ --      0.0000                 6.7798                 6.7798

                      4                      5                      6
                     ?B                     ?A                     ?A
 Frequencies --   2679.3930              2803.4213              2803.4213
 Red. masses --      1.0078                 1.1257                 1.1257
 Frc consts  --      4.2629                 5.2126                 5.2126
 IR Inten    --      0.0000               145.5599               145.5599
 Raman Activ --    154.1080                30.3713                30.3713

 - Thermochemistry -
 -------------------
 Temperature   298.150 Kelvin.  Pressure   1.00000 Atm.
 Atom     1 has atomic number  5 and mass  11.00931

 Molecular mass:    14.03278 amu.
 Principal axes and moments of inertia in atomic units:
                           1         2         3
     Eigenvalues --     7.62171   7.62171  15.24342
           X            0.47186   0.88167   0.00000
           Y            0.88167  -0.47186   0.00000
           Z            0.00000   0.00000   1.00000
 This molecule is an oblate symmetric top.
 Rotational symmetry number  6.
 Rotational temperatures (Kelvin)     11.36411    11.36411     5.68205
 Rotational constants (GHZ):         236.78960   236.78960   118.39480
 Zero-point vibrational energy      72284.6 (Joules/Mol)
                                   17.27643 (Kcal/Mol)
 Vibrational temperatures:   1743.11  1861.26  1861.26  3855.05  4033.50
          (Kelvin)           4033.50

 Zero-point correction=                           0.027532 (Hartree/Particle)
 Thermal correction to Energy=                    0.030403
 Thermal correction to Enthalpy=                  0.031348
 Thermal correction to Gibbs Free Energy=         0.009993
 Sum of electronic and zero-point Energies=            -26.209770
 Sum of electronic and thermal Energies=               -26.206898
 Sum of electronic and thermal Enthalpies=             -26.205954
 Sum of electronic and thermal Free Energies=          -26.227309

                     E (Thermal)             CV                S
                      KCal/Mol        Cal/Mol-Kelvin    Cal/Mol-Kelvin
 Total                   19.078              6.463             44.945
 Electronic               0.000              0.000              0.000
 Translational            0.889              2.981             33.864
 Rotational               0.889              2.981             10.985
 Vibrational             17.301              0.502              0.096

 Optimization completed.
    -- Stationary point found.
 Normal termination of Gaussian 16 at Fri Jun 13 20:22:47 2025.
