 Gaussian 16, Revision B.01,
 Gaussian 16:  EM64L-G16RevB.01 20-Dec-2017

 -------------------------------------
 # hf/3-21g pop=full geom=connectivity
 -------------------------------------

 -------------------
 Title Card Required
 -------------------
 Symbolic Z-matrix:
 Charge =  0 Multiplicity = 1

                         Standard orientation:
 ---------------------------------------------------------------------
 Center     Atomic      Atomic             Coordinates (Angstroms)
 Number     Number       Type             X           Y           Z
 ---------------------------------------------------------------------
      1         13           0        0.000000    0.000000    0.054458
      2          1           0        0.000000    1.594107   -0.235984
      3          1           0        1.380537   -0.797053   -0.235984
      4          1           0       -1.380537   -0.797053   -0.235984
 ---------------------------------------------------------------------

 SCF Done:  E(RHF) =  -242.275473480     A.U. after    8 cycles

 The electronic state is 1-A.
 Alpha  occ. eigenvalues --  -58.06528  -4.87624  -3.17983  -3.17848  -3.17848
 Alpha  occ. eigenvalues --   -0.56830  -0.42013  -0.42013
 Alpha virt. eigenvalues --    0.01741   0.17246   0.17246   0.21048   0.28812
 Alpha virt. eigenvalues --    0.37332   0.38306   0.38306   1.34714   1.37327
 Alpha virt. eigenvalues --    1.37327

 Mulliken charges:
               1
     1  Al   0.770891
     2  H   -0.256964
     3  H   -0.256964
     4  H   -0.256964
 Sum of Mulliken charges =  -0.00000

 Dipole moment (field-independent basis, Debye):
    X=             -0.0000    Y=             -0.0000    Z=              1.6396  Tot=              1.6396
 Quadrupole moment (field-independent basis, Debye-Ang):
   XX=            -19.4458   YY=            -19.4458   ZZ=            -11.7894
   XY=              0.0000   XZ=              0.0000   YZ=              0.0000

 Normal termination of Gaussian 16 at Mon Jun 16 22:02:30 2025.
