 Gaussian 16, Revision B.01,
 Gaussian 16:  EM64L-G16RevB.01 20-Dec-2017

 -------------------------------------
 # hf/3-21g pop=full geom=connectivity
 -------------------------------------

 -------------------
 Title Card Required
 -------------------
 Symbolic Z-matrix:
 Charge =  0 Multiplicity = 1

                         Standard orientation:
 ---------------------------------------------------------------------
 Center     Atomic      Atomic             Coordinates (Angstroms)
 Number     Number       Type             X           Y           Z
 ---------------------------------------------------------------------
      1          7           0        0.000000    0.000000    0.101819
      2          1           0       -0.000000    0.952508   -0.237579
      3          1           0       -0.824896   -0.476254   -0.237579
      4          1           0        0.824896   -0.476254   -0.237579
 ---------------------------------------------------------------------

 SCF Done:  E(RHF) =  -55.8716824897     A.U. after   10 cycles

 The electronic state is 1-A1.
 Alpha  occ. eigenvalues --  -15.43990  -1.12553  -0.61467  -0.61467  -0.39714
 Alpha virt. eigenvalues --    0.27048   0.37224   0.37224   1.16784   1.16784
 Alpha virt. eigenvalues --    1.31829   1.41562   1.59003   1.59003   2.58774

 Mulliken charges:
               1
     1  N   -0.853474
     2  H    0.284491
     3  H    0.284491
     4  H    0.284491
 Sum of Mulliken charges =  -0.00000

 Dipole moment (field-independent basis, Debye):
    X=              0.0000    Y=             -0.0000    Z=             -2.0049  Tot=              2.0049
 Quadrupole moment (field-independent basis, Debye-Ang):
   XX=             -5.8848   YY=             -5.8848   ZZ=             -8.6314
   XY=             -0.0000   XZ=              0.0000   YZ=              0.0000

 Normal termination of Gaussian 16 at Mon Jun 16 22:03:59 2025.
