 Gaussian 16, Revision B.01,
 Gaussian 16:  EM64L-G16RevB.01 20-Dec-2017

 -------------------------------------
 # hf/3-21g pop=full geom=connectivity
 -------------------------------------

 -------------------
 Title Card Required
 -------------------
 Symbolic Z-matrix:
 Charge =  0 Multiplicity = 1

                         Standard orientation:
 ---------------------------------------------------------------------
 Center     Atomic      Atomic             Coordinates (Angstroms)
 Number     Number       Type             X           Y           Z
 ---------------------------------------------------------------------
      1          7           0       -0.000000    0.000000   -1.254501
      2          1           0       -0.476254    0.824896   -1.593899
      3          1           0       -0.476254   -0.824896   -1.593899
      4          1           0        0.952508    0.000000   -1.593899
      5         13           0       -0.000000    0.000000    0.793242
      6          1           0       -1.594107    0.000000    1.083684
      7          1           0        0.797053   -1.380537    1.083684
      8          1           0        0.797053    1.380537    1.083684
 ---------------------------------------------------------------------

 SCF Done:  E(RHF) =  -298.224645642     A.U. after    9 cycles

 The electronic state is 1-A.
 Alpha  occ. eigenvalues --  -58.00964 -15.56995  -4.81625  -3.12023  -3.12023
 Alpha  occ. eigenvalues --   -3.12003  -1.24919  -0.73246  -0.73246  -0.61847
 Alpha  occ. eigenvalues --   -0.47391  -0.37843  -0.37843
 Alpha virt. eigenvalues --    0.12554   0.20490   0.20490   0.22188   0.29956
 Alpha virt. eigenvalues --    0.29956   0.34652   0.37735   0.42702   0.42702
 Alpha virt. eigenvalues --    0.48301   1.12524   1.12524   1.23851   1.39737

 Mulliken charges:
               1
     1  N   -0.960453
     2  H    0.384886
     3  H    0.384886
     4  H    0.384886
     5  Al   0.738889
     6  H   -0.311031
     7  H   -0.311031
     8  H   -0.311031
 Sum of Mulliken charges =   0.00000

 Dipole moment (field-independent basis, Debye):
    X=              0.0000    Y=             -0.0000    Z=             -6.1545  Tot=              6.1545
 Quadrupole moment (field-independent basis, Debye-Ang):
   XX=            -26.3656   YY=            -26.3656   ZZ=            -18.0297
   XY=              0.0000   XZ=              0.0000   YZ=             -0.0000

 Normal termination of Gaussian 16 at Mon Jun 16 21:57:14 2025.
