 Gaussian 16, Revision B.01,
 Gaussian 16:  EM64L-G16RevB.01 20-Dec-2017

 ----------------------------------------------
 # opt freq hf/3-21g pop=full geom=connectivity
 ----------------------------------------------

 -------------------
 Title Card Required
 -------------------
 Symbolic Z-matrix:
 Charge =  0 Multiplicity = 1

 SCF Done:  E(RHF) =  -298.210270711     A.U. after    9 cycles
 SCF Done:  E(RHF) =  -298.222542333     A.U. after    8 cycles
 SCF Done:  E(RHF) =  -298.224524425     A.U. after    8 cycles
 SCF Done:  E(RHF) =  -298.224633766     A.U. after    7 cycles
 SCF Done:  E(RHF) =  -298.224645642     A.U. after    7 cycles
 Optimization completed.
    -- Stationary point found.
 Normal termination of Gaussian 16 at Mon Jun 16 21:56:38 2025.

 --------------------------------------------------------------
 #N Geom=AllCheck Guess=TCheck SCRF=Check GenChk RHF/3-21G Freq
 --------------------------------------------------------------

 Structure from the checkpoint file:  "NH3_AlH3_opt.chk"
 -------------------
 Title Card Required
 -------------------
 Charge =  0 Multiplicity = 1

                         Standard orientation:
 ---------------------------------------------------------------------
 Center     Atomic      Atomic             Coordinates (Angstroms)
 Number     Number       Type             X           Y           Z
 ---------------------------------------------------------------------
      1          7           0       -0.000000    0.000000   -1.254501
      2          1           0        0.824896    0.476254   -1.593899
      3          1           0       -0.824896    0.476254   -1.593899
      4          1           0       -0.000000   -0.952508   -1.593899
      5         13           0        0.000000   -0.000000    0.793242
      6          1           0        0.000000    1.594107    1.083684
      7          1           0       -1.380537   -0.797053    1.083684
      8          1           0        1.380537   -0.797053    1.083684
 ---------------------------------------------------------------------

 SCF Done:  E(RHF) =  -298.224645642     A.U. after    1 cycles

 The electronic state is 1-A1.
 Alpha  occ. eigenvalues --  -58.00964 -15.56995  -4.81625  -3.12023  -3.12023
 Alpha  occ. eigenvalues --   -3.12003  -1.24919  -0.73246  -0.73246  -0.61847
 Alpha  occ. eigenvalues --   -0.47391  -0.37843  -0.37843
 Alpha virt. eigenvalues --    0.12554   0.20490   0.20490   0.22188   0.29956
 Alpha virt. eigenvalues --    0.29956   0.34652   0.37735   0.42702   0.42702
 Alpha virt. eigenvalues --    0.48301   1.12524   1.12524   1.23851   1.39737

 Mulliken charges:
               1
     1  N   -0.960453
     2  H    0.384886
     3  H    0.384886
     4  H    0.384886
     5  Al   0.738889
     6  H   -0.311031
     7  H   -0.311031
     8  H   -0.311031
 Sum of Mulliken charges =   0.00000

 Dipole moment (field-independent basis, Debye):
    X=              0.0000    Y=              0.0000    Z=             -6.1545  Tot=              6.1545
 Quadrupole moment (field-independent basis, Debye-Ang):
   XX=            -26.3656   YY=            -26.3656   ZZ=            -18.0296
   XY=              0.0000   XZ=             -0.0000   YZ=              0.0000

  Exact polarizability:  30.655  -0.000  30.655   0.000  -0.000  21.265
 Approx polarizability:  24.578  -0.000  24.578   0.000   0.000  14.849

                      1                      2                      3
                     A2                      E                      E
 Frequencies --    120.1458               448.4811               448.4811
 Red. masses --      1.0078                 1.0364                 1.0364
 Frc consts  --      0.0086                 0.1228                 0.1228
 IR Inten    --      0.0000                15.1005                15.1005
 Raman Activ --      0.0000                 8.8770                 8.8770

                      4                      5                      6
                     A1                      E                      E
 Frequencies --    492.0486               776.2788               776.2788
 Red. masses --      5.5997                 1.0447                 1.0447
 Frc consts  --      0.7988                 0.3709                 0.3709
 IR Inten    --      6.7039               104.3665               104.3665
 Raman Activ --      1.1110                32.6677                32.6677

                      7                      8                      9
                     A1                      E                      E
 Frequencies --    820.9519               870.4014               870.4014
 Red. masses --      1.0920                 1.2070                 1.2070
 Frc consts  --      0.4336                 0.5388                 0.5388
 IR Inten    --    653.8769               314.2622               314.2622
 Raman Activ --      9.4275                12.8532                12.8532

                     10                     11                     12
                     A1                      E                      E
 Frequencies --   1452.4096              1851.8339              1851.8339
 Red. masses --      1.1810                 1.0658                 1.0658
 Frc consts  --      1.4679                 2.1535                 2.1535
 IR Inten    --    315.4922                19.1419                19.1420
 Raman Activ --      3.5056                10.2738                10.2738

                     13                     14                     15
                      E                      E                     A1
 Frequencies --   1882.8852              1882.8852              1910.3613
 Red. masses --      1.0550                 1.0550                 1.0106
 Frc consts  --      2.2038                 2.2038                 2.1730
 IR Inten    --    423.8782               423.8782                36.0678
 Raman Activ --     32.0734                32.0734               166.4570

                     16                     17                     18
                     A1                      E                      E
 Frequencies --   3594.1671              3710.0899              3710.0899
 Red. masses --      1.0238                 1.0909                 1.0909
 Frc consts  --      7.7919                 8.8472                 8.8472
 IR Inten    --     21.1541                60.5471                60.5471
 Raman Activ --     66.3571                42.1845                42.1845

 - Thermochemistry -
 -------------------
 Temperature   298.150 Kelvin.  Pressure   1.00000 Atm.
 Atom     1 has atomic number  7 and mass  14.00307

 Molecular mass:    47.03157 amu.
 Principal axes and moments of inertia in atomic units:
                           1         2         3
     Eigenvalues --    37.23299 197.65309 197.65309
           X            0.00000  -0.49159   0.87082
           Y           -0.00000   0.87082   0.49159
           Z            1.00000   0.00000   0.00000
 This molecule is a prolate symmetric top.
 Rotational symmetry number  3.
 Rotational temperatures (Kelvin)      2.32627     0.43821     0.43821
 Rotational constants (GHZ):          48.47157     9.13085     9.13085
 Zero-point vibrational energy     164307.2 (Joules/Mol)
                                   39.27037 (Kcal/Mol)
 Warning -- explicit consideration of   4 degrees of freedom as
           vibrations may cause significant error
 Vibrational temperatures:    172.86   645.26   645.26   707.95  1116.89
          (Kelvin)           1116.89  1181.17  1252.31  1252.31  2089.69
                             2664.38  2664.38  2709.05  2709.05  2748.58
                             5171.20  5337.99  5337.99

 Zero-point correction=                           0.062581 (Hartree/Particle)
 Thermal correction to Energy=                    0.067246
 Thermal correction to Enthalpy=                  0.068190
 Thermal correction to Gibbs Free Energy=         0.037995
 Sum of electronic and zero-point Energies=           -298.162064
 Sum of electronic and thermal Energies=              -298.157399
 Sum of electronic and thermal Enthalpies=            -298.156455
 Sum of electronic and thermal Free Energies=         -298.186651

                     E (Thermal)             CV                S
                      KCal/Mol        Cal/Mol-Kelvin    Cal/Mol-Kelvin
 Total                   42.198             15.156             63.552
 Electronic               0.000              0.000              0.000
 Translational            0.889              2.981             37.469
 Rotational               0.889              2.981             19.719
 Vibrational             40.420              9.194              6.363
 Vibration     1          0.609              1.932              3.098
 Vibration     2          0.807              1.364              0.800
 Vibration     3          0.807              1.364              0.800
 Vibration     4          0.848              1.268              0.678

 Optimization completed.
    -- Stationary point found.
 Normal termination of Gaussian 16 at Mon Jun 16 21:56:39 2025.
