 Gaussian 16, Revision B.01,
 Gaussian 16:  EM64L-G16RevB.01 20-Dec-2017

 -------------------------------------
 # opt freq hf/3-21g geom=connectivity
 -------------------------------------

 ------------
 Optimisation
 ------------
 Symbolic Z-matrix:
 Charge =  0 Multiplicity = 1

 SCF Done:  E(RHF) =  -191.392758324     A.U. after   17 cycles
 SCF Done:  E(RHF) =  -191.464952830     A.U. after   16 cycles
 SCF Done:  E(RHF) =  -191.543684448     A.U. after   15 cycles
 SCF Done:  E(RHF) =  -191.601087910     A.U. after   14 cycles
 SCF Done:  E(RHF) =  -191.642638876     A.U. after   14 cycles
 SCF Done:  E(RHF) =  -191.656159757     A.U. after   13 cycles
 SCF Done:  E(RHF) =  -191.660301910     A.U. after   13 cycles
 SCF Done:  E(RHF) =  -191.662723095     A.U. after   13 cycles
 SCF Done:  E(RHF) =  -191.660934806     A.U. after   12 cycles
 SCF Done:  E(RHF) =  -191.659892581     A.U. after   13 cycles
 SCF Done:  E(RHF) =  -191.657697213     A.U. after   12 cycles
 SCF Done:  E(RHF) =  -191.663019588     A.U. after   10 cycles
 SCF Done:  E(RHF) =  -191.664034087     A.U. after   12 cycles
 SCF Done:  E(RHF) =  -191.663180619     A.U. after   13 cycles
 SCF Done:  E(RHF) =  -191.664176513     A.U. after   11 cycles
 SCF Done:  E(RHF) =  -191.664524813     A.U. after   12 cycles
 SCF Done:  E(RHF) =  -191.664592258     A.U. after   10 cycles
 SCF Done:  E(RHF) =  -191.664609225     A.U. after   10 cycles
 SCF Done:  E(RHF) =  -191.664613133     A.U. after    9 cycles
 Optimization completed.
    -- Stationary point found.
 Normal termination of Gaussian 16 at Mon Jun  9 21:00:06 2025.

 --------------------------------------------------------------
 #N Geom=AllCheck Guess=TCheck SCRF=Check GenChk RHF/3-21G Freq
 --------------------------------------------------------------

 Structure from the checkpoint file:  "meth_cyclobutadiene_isomer.chk"
 ------------
 Optimisation
 ------------
 Charge =  0 Multiplicity = 1

                         Standard orientation:
 ---------------------------------------------------------------------
 Center     Atomic      Atomic             Coordinates (Angstroms)
 Number     Number       Type             X           Y           Z
 ---------------------------------------------------------------------
      1          6           0       -0.532032   -1.043909    0.000012
      2          6           0       -1.499507   -0.126363    0.000102
      3          6           0       -0.528805    1.078361   -0.000069
      4          6           0        0.567376   -0.032991   -0.000060
      5          1           0       -0.527894   -2.111326   -0.000350
      6          1           0       -2.565003   -0.182582    0.000137
      7          1           0       -0.546537    1.689666    0.891361
      8          6           0        1.877605   -0.041192    0.000061
      9          1           0        2.443913    0.870667    0.000157
     10          1           0        2.434169   -0.959416   -0.000009
     11          1           0       -0.546471    1.689552   -0.891573
 ---------------------------------------------------------------------

 SCF Done:  E(RHF) =  -191.664613133     A.U. after    1 cycles

 The electronic state is 1-A.
 Alpha  occ. eigenvalues --  -11.19078 -11.18726 -11.18010 -11.17932 -11.15474
 Alpha  occ. eigenvalues --   -1.16616  -1.00188  -0.90668  -0.79856  -0.70269
 Alpha  occ. eigenvalues --   -0.66733  -0.61150  -0.60333  -0.53961  -0.48427
 Alpha  occ. eigenvalues --   -0.45310  -0.41692  -0.32402
 Alpha virt. eigenvalues --    0.14150   0.24748   0.29970   0.31052   0.31611
 Alpha virt. eigenvalues --    0.33708   0.35497   0.36001   0.39097   0.43512
 Alpha virt. eigenvalues --    0.54589   0.59341   0.69338   0.87688   0.92073

 Mulliken charges:
               1
     1  C   -0.169657
     2  C   -0.253980
     3  C   -0.384260
     4  C   -0.052183
     5  H    0.235108
     6  H    0.231485
     7  H    0.231227
     8  C   -0.496317
     9  H    0.213907
    10  H    0.213430
    11  H    0.231240
 Sum of Mulliken charges =  -0.00000

 Dipole moment (field-independent basis, Debye):
    X=             -0.4915    Y=              0.1100    Z=             -0.0004  Tot=              0.5037
 Quadrupole moment (field-independent basis, Debye-Ang):
   XX=            -28.2362   YY=            -28.0756   ZZ=            -33.8931
   XY=             -0.1363   XZ=              0.0000   YZ=              0.0008

  Exact polarizability:  71.061  -5.043  47.040   0.001   0.001  19.840
 Approx polarizability:  59.131  -4.747  41.310   0.000   0.001  18.294

                      1                      2                      3
                      A                      A                      A
 Frequencies --    241.4827               375.7695               538.3157
 Red. masses --      2.6559                 2.3075                 1.6995
 Frc consts  --      0.0913                 0.1920                 0.2902
 IR Inten    --      1.5359                 0.3665                25.8154
 Raman Activ --      1.5209                 4.6682                13.5787

                      4                      5                      6
                      A                      A                      A
 Frequencies --    745.5934               786.7025               891.0182
 Red. masses --      3.7341                 1.0203                 1.3064
 Frc consts  --      1.2230                 0.3720                 0.6111
 IR Inten    --      2.1490                 7.8596                46.0675
 Raman Activ --      9.5349                 3.4710                16.3910

                      7                      8                      9
                      A                      A                      A
 Frequencies --    923.5164               941.1841              1024.8446
 Red. masses --      3.1240                 2.1888                 3.3417
 Frc consts  --      1.5698                 1.1423                 2.0679
 IR Inten    --      2.7693                 1.9579                 0.7355
 Raman Activ --      7.5515                16.4698                13.6118

                     10                     11                     12
                      A                      A                      A
 Frequencies --   1070.8123              1097.3172              1128.7349
 Red. masses --      1.3422                 1.2818                 1.8780
 Frc consts  --      0.9068                 0.9094                 1.4097
 IR Inten    --     80.3333                 1.1960                 4.0533
 Raman Activ --      2.8176                 0.0187                12.1435

                     13                     14                     15
                      A                      A                      A
 Frequencies --   1195.6001              1243.7663              1300.8125
 Red. masses --      1.2614                 1.1546                 2.0456
 Frc consts  --      1.0624                 1.0523                 2.0394
 IR Inten    --      0.4625                 4.1705                 1.8156
 Raman Activ --     22.8023                 7.5138                 9.6516

                     16                     17                     18
                      A                      A                      A
 Frequencies --   1354.4518              1422.0058              1604.3886
 Red. masses --      1.3666                 1.6337                 1.1506
 Frc consts  --      1.4772                 1.9464                 1.7449
 IR Inten    --      5.2979                 7.9230                 0.0813
 Raman Activ --      1.3801                 2.6384                37.6882

                     19                     20                     21
                      A                      A                      A
 Frequencies --   1625.3995              1724.2746              1906.4750
 Red. masses --      1.1194                 4.9234                 6.4777
 Frc consts  --      1.7424                 8.6244                13.8719
 IR Inten    --      0.4442                 1.0709                23.7877
 Raman Activ --     17.4891                70.1997                81.3529

                     22                     23                     24
                      A                      A                      A
 Frequencies --   3241.3207              3294.3655              3315.8844
 Red. masses --      1.0556                 1.1091                 1.0630
 Frc consts  --      6.5342                 7.0922                 6.8860
 IR Inten    --     25.2399                20.4774                 6.0065
 Raman Activ --    120.9092                90.9533                94.0970

                     25                     26                     27
                      A                      A                      A
 Frequencies --   3389.6162              3405.4060              3441.7403
 Red. masses --      1.1143                 1.0876                 1.1148
 Frc consts  --      7.5434                 7.4311                 7.7806
 IR Inten    --      9.9720                 2.5541                12.4917
 Raman Activ --     78.7686                76.9285               121.5721

 - Thermochemistry -
 -------------------
 Temperature   298.150 Kelvin.  Pressure   1.00000 Atm.
 Atom     1 has atomic number  6 and mass  12.00000

 Molecular mass:    66.04695 amu.
 Principal axes and moments of inertia in atomic units:
                           1         2         3
     Eigenvalues --   145.74227 360.69583 494.99738
           X            0.99997  -0.00760   0.00000
           Y            0.00760   0.99997   0.00002
           Z           -0.00000  -0.00002   1.00000
 This molecule is an asymmetric top.
 Rotational symmetry number  1.
 Rotational temperatures (Kelvin)      0.59430     0.24013     0.17498
 Rotational constants (GHZ):          12.38310     5.00350     3.64596
 Zero-point vibrational energy     258577.6 (Joules/Mol)
                                   61.80153 (Kcal/Mol)
 Warning -- explicit consideration of   3 degrees of freedom as
           vibrations may cause significant error
 Vibrational temperatures:    347.44   540.65   774.52  1072.74  1131.89
          (Kelvin)           1281.98  1328.73  1354.15  1474.52  1540.66
                             1578.79  1624.00  1720.20  1789.50  1871.58
                             1948.75  2045.95  2308.36  2338.59  2480.85
                             2742.99  4663.54  4739.86  4770.82  4876.90
                             4899.62  4951.90

 Zero-point correction=                           0.098487 (Hartree/Particle)
 Thermal correction to Energy=                    0.102854
 Thermal correction to Enthalpy=                  0.103798
 Thermal correction to Gibbs Free Energy=         0.071505
 Sum of electronic and zero-point Energies=           -191.566126
 Sum of electronic and thermal Energies=              -191.561759
 Sum of electronic and thermal Enthalpies=            -191.560815
 Sum of electronic and thermal Free Energies=         -191.593109

                     E (Thermal)             CV                S
                      KCal/Mol        Cal/Mol-Kelvin    Cal/Mol-Kelvin
 Total                   64.542             15.371             67.968
 Electronic               0.000              0.000              0.000
 Translational            0.889              2.981             38.482
 Rotational               0.889              2.981             24.768
 Vibrational             62.765              9.409              4.718
 Vibration     1          0.658              1.777              1.792
 Vibration     2          0.747              1.522              1.056
 Vibration     3          0.893              1.165              0.569

 Optimization completed.
    -- Stationary point found.
 Normal termination of Gaussian 16 at Mon Jun  9 21:00:07 2025.
