 Gaussian 16, Revision B.01,
 Gaussian 16:  EM64L-G16RevB.01 20-Dec-2017

 -------------------------------------
 # opt freq hf/3-21g geom=connectivity
 -------------------------------------

 ------------
 Optimisation
 ------------
 Symbolic Z-matrix:
 Charge =  0 Multiplicity = 1

 SCF Done:  E(RHF) =  -191.389261803     A.U. after   17 cycles
 SCF Done:  E(RHF) =  -191.459664416     A.U. after   17 cycles
 SCF Done:  E(RHF) =  -191.514355441     A.U. after   14 cycles
 SCF Done:  E(RHF) =  -191.531672605     A.U. after   13 cycles
 SCF Done:  E(RHF) =  -191.539764984     A.U. after   17 cycles
 SCF Done:  E(RHF) =  -191.541986767     A.U. after   15 cycles
 SCF Done:  E(RHF) =  -191.542280045     A.U. after   15 cycles
 SCF Done:  E(RHF) =  -191.542302782     A.U. after   15 cycles
 SCF Done:  E(RHF) =  -191.546305819     A.U. after   17 cycles
 SCF Done:  E(RHF) =  -191.577824806     A.U. after   15 cycles
 SCF Done:  E(RHF) =  -191.596282798     A.U. after   13 cycles
 SCF Done:  E(RHF) =  -191.598029051     A.U. after   13 cycles
 SCF Done:  E(RHF) =  -191.598542868     A.U. after   14 cycles
 SCF Done:  E(RHF) =  -191.597593005     A.U. after   13 cycles
 SCF Done:  E(RHF) =  -191.598869975     A.U. after   13 cycles
 SCF Done:  E(RHF) =  -191.598885142     A.U. after   12 cycles
 SCF Done:  E(RHF) =  -191.598882561     A.U. after   12 cycles
 SCF Done:  E(RHF) =  -191.598907991     A.U. after   12 cycles
 SCF Done:  E(RHF) =  -191.598908247     A.U. after   10 cycles
 Optimization completed.
    -- Stationary point found.
 Normal termination of Gaussian 16 at Mon Jun  9 20:54:58 2025.

 --------------------------------------------------------------
 #N Geom=AllCheck Guess=TCheck SCRF=Check GenChk RHF/3-21G Freq
 --------------------------------------------------------------

 Structure from the checkpoint file:  "meth_cyclobutadiene.chk"
 ------------
 Optimisation
 ------------
 Charge =  0 Multiplicity = 1

                         Standard orientation:
 ---------------------------------------------------------------------
 Center     Atomic      Atomic             Coordinates (Angstroms)
 Number     Number       Type             X           Y           Z
 ---------------------------------------------------------------------
      1          6           0        0.798761    0.979014   -0.000004
      2          6           0        1.638273   -0.043517   -0.000026
      3          6           0        0.410983   -1.064451    0.000003
      4          6           0       -0.439186   -0.048773   -0.000052
      5          1           0        0.891443    2.041127    0.000106
      6          1           0        2.699116   -0.149425    0.000109
      7          1           0        0.318161   -2.126506    0.000099
      8          6           0       -1.913786    0.127341    0.000015
      9          1           0       -2.231670    0.685414   -0.876473
     10          1           0       -2.415647   -0.833286   -0.000223
     11          1           0       -2.231670    0.684993    0.876765
 ---------------------------------------------------------------------

 SCF Done:  E(RHF) =  -191.598908247     A.U. after    1 cycles

 The electronic state is 1-A.
 Alpha  occ. eigenvalues --  -11.19534 -11.18480 -11.17954 -11.17396 -11.16780
 Alpha  occ. eigenvalues --   -1.16247  -1.00224  -0.90093  -0.79100  -0.69492
 Alpha  occ. eigenvalues --   -0.65492  -0.59617  -0.57887  -0.55288  -0.50117
 Alpha  occ. eigenvalues --   -0.45842  -0.43046  -0.27671
 Alpha virt. eigenvalues --    0.11518   0.27340   0.27996   0.30175   0.31268
 Alpha virt. eigenvalues --    0.32841   0.35181   0.36881   0.37286   0.44470
 Alpha virt. eigenvalues --    0.51350   0.54849   0.78689   0.85165   0.90450

 Mulliken charges:
               1
     1  C   -0.225627
     2  C   -0.241296
     3  C   -0.240754
     4  C   -0.020357
     5  H    0.236802
     6  H    0.235698
     7  H    0.232694
     8  C   -0.649696
     9  H    0.224955
    10  H    0.222622
    11  H    0.224960
 Sum of Mulliken charges =  -0.00000

 Dipole moment (field-independent basis, Debye):
    X=             -0.4231    Y=              0.1317    Z=              0.0004  Tot=              0.4431
 Quadrupole moment (field-independent basis, Debye-Ang):
   XX=            -27.5949   YY=            -28.1509   ZZ=            -34.0361
   XY=             -0.3030   XZ=              0.0005   YZ=              0.0000

  Exact polarizability:  54.228  -6.883  49.829   0.000   0.000  21.117
 Approx polarizability:  44.715 -10.690  47.694   0.000  -0.000  19.200

                      1                      2                      3
                      A                      A                      A
 Frequencies --    192.7039               284.4160               320.2665
 Red. masses --      1.0732                 2.7953                 2.5609
 Frc consts  --      0.0235                 0.1332                 0.1548
 IR Inten    --      0.2157                13.6987                 2.1832
 Raman Activ --      0.7769                 5.5348                 0.8106

                      4                      5                      6
                      A                      A                      A
 Frequencies --    631.7946               647.8896               763.3676
 Red. masses --      2.2446                 3.2988                 1.1804
 Frc consts  --      0.5279                 0.8159                 0.4053
 IR Inten    --      8.9349                 0.6744               110.5657
 Raman Activ --      0.2220                 8.2069                 4.4298

                      7                      8                      9
                      A                      A                      A
 Frequencies --    784.9971               914.3737               972.2083
 Red. masses --      3.4060                 1.3678                 2.8853
 Frc consts  --      1.2366                 0.6738                 1.6068
 IR Inten    --      3.1427                34.9509                 1.4361
 Raman Activ --      5.4127                 5.6144                29.7073

                     10                     11                     12
                      A                      A                      A
 Frequencies --   1071.6026              1107.2268              1166.7439
 Red. masses --      1.4452                 2.0474                 1.1738
 Frc consts  --      0.9778                 1.4789                 0.9414
 IR Inten    --      0.0088                 2.3854                 0.0746
 Raman Activ --      0.5177                 6.1005                 6.8939

                     13                     14                     15
                      A                      A                      A
 Frequencies --   1193.9728              1271.6401              1283.6048
 Red. masses --      1.5273                 2.2497                 1.5649
 Frc consts  --      1.2828                 2.1434                 1.5192
 IR Inten    --      8.0368                 5.4839                 2.9971
 Raman Activ --      0.3567                 7.8104                 1.0412

                     16                     17                     18
                      A                      A                      A
 Frequencies --   1366.4026              1575.6729              1644.6575
 Red. masses --      1.4920                 1.2050                 1.0421
 Frc consts  --      1.6412                 1.7627                 1.6608
 IR Inten    --     26.5498                 2.6642                 8.3956
 Raman Activ --      1.5714                15.8297                25.9084

                     19                     20                     21
                      A                      A                      A
 Frequencies --   1652.8666              1744.3674              1834.9243
 Red. masses --      1.0686                 5.8189                 6.5325
 Frc consts  --      1.7200                10.4320                12.9588
 IR Inten    --     11.1039                 3.4046                 5.8553
 Raman Activ --     34.4046                15.5488                18.0666

                     22                     23                     24
                      A                      A                      A
 Frequencies --   3180.5843              3223.3779              3259.0089
 Red. masses --      1.0349                 1.0989                 1.0989
 Frc consts  --      6.1685                 6.7269                 6.8767
 IR Inten    --     22.6432                20.9619                16.4634
 Raman Activ --    155.2859                99.8177                77.5322

                     25                     26                     27
                      A                      A                      A
 Frequencies --   3412.6877              3434.4292              3456.6981
 Red. masses --      1.0855                 1.1013                 1.1195
 Frc consts  --      7.4487                 7.6535                 7.8815
 IR Inten    --      3.0207                 7.9455                 5.5909
 Raman Activ --    119.2839                27.9195               143.3309

 - Thermochemistry -
 -------------------
 Temperature   298.150 Kelvin.  Pressure   1.00000 Atm.
 Atom     1 has atomic number  6 and mass  12.00000

 Molecular mass:    66.04695 amu.
 Principal axes and moments of inertia in atomic units:
                           1         2         3
     Eigenvalues --   133.25541 406.17097 528.36359
           X            0.99999  -0.00414   0.00000
           Y            0.00414   0.99999   0.00000
           Z           -0.00000  -0.00000   1.00000
 This molecule is an asymmetric top.
 Rotational symmetry number  1.
 Rotational temperatures (Kelvin)      0.64998     0.21324     0.16393
 Rotational constants (GHZ):          13.54347     4.44330     3.41572
 Zero-point vibrational energy     253563.4 (Joules/Mol)
                                   60.60310 (Kcal/Mol)
 Warning -- explicit consideration of   3 degrees of freedom as
           vibrations may cause significant error
 Vibrational temperatures:    277.26   409.21   460.79   909.01   932.17
          (Kelvin)           1098.32  1129.44  1315.58  1398.79  1541.80
                             1593.05  1678.68  1717.86  1829.61  1846.82
                             1965.95  2267.04  2366.30  2378.11  2509.76
                             2640.05  4576.15  4637.72  4688.99  4910.10
                             4941.38  4973.42

 Zero-point correction=                           0.096577 (Hartree/Particle)
 Thermal correction to Energy=                    0.101494
 Thermal correction to Enthalpy=                  0.102438
 Thermal correction to Gibbs Free Energy=         0.069104
 Sum of electronic and zero-point Energies=           -191.502331
 Sum of electronic and thermal Energies=              -191.497414
 Sum of electronic and thermal Enthalpies=            -191.496470
 Sum of electronic and thermal Free Energies=         -191.529804

                     E (Thermal)             CV                S
                      KCal/Mol        Cal/Mol-Kelvin    Cal/Mol-Kelvin
 Total                   63.688             16.977             70.158
 Electronic               0.000              0.000              0.000
 Translational            0.889              2.981             38.482
 Rotational               0.889              2.981             24.862
 Vibrational             61.911             11.015              6.814
 Vibration     1          0.635              1.850              2.202
 Vibration     2          0.683              1.703              1.507
 Vibration     3          0.706              1.635              1.309

 Optimization completed.
    -- Stationary point found.
 Normal termination of Gaussian 16 at Mon Jun  9 20:55:00 2025.
