 Gaussian 16, Revision B.01,
 Gaussian 16:  EM64L-G16RevB.01 20-Dec-2017

 ----------------------------------------------
 # opt freq hf/3-21g pop=full geom=connectivity
 ----------------------------------------------

 --------
 BCl3 opt
 --------
 Symbolic Z-matrix:
 Charge =  0 Multiplicity = 1

 SCF Done:  E(RHF) =  -1396.52120213     A.U. after   10 cycles
 SCF Done:  E(RHF) =  -1396.53297487     A.U. after   11 cycles
 SCF Done:  E(RHF) =  -1396.53311295     A.U. after    9 cycles
 Optimization completed.
    -- Stationary point found.
 Normal termination of Gaussian 16 at Mon Jun 16 21:13:55 2025.

 --------------------------------------------------------------
 #N Geom=AllCheck Guess=TCheck SCRF=Check GenChk RHF/3-21G Freq
 --------------------------------------------------------------

 Structure from the checkpoint file:  "BCl3_opt.chk"
 --------
 BCl3 opt
 --------
 Charge =  0 Multiplicity = 1

                         Standard orientation:
 ---------------------------------------------------------------------
 Center     Atomic      Atomic             Coordinates (Angstroms)
 Number     Number       Type             X           Y           Z
 ---------------------------------------------------------------------
      1          5           0        0.000000    0.000000    0.000000
      2         17           0       -0.000000    1.771336    0.000000
      3         17           0       -1.534022   -0.885668   -0.000000
      4         17           0        1.534022   -0.885668    0.000000
 ---------------------------------------------------------------------

 SCF Done:  E(RHF) =  -1396.53311295     A.U. after    1 cycles

 Unable to determine electronic state:  an orbital has unidentified symmetry.
 Alpha  occ. eigenvalues -- -104.14847-104.14847-104.14809 -10.54515 -10.54515
 Alpha  occ. eigenvalues --  -10.54391  -8.00778  -8.00778  -8.00759  -8.00400
 Alpha  occ. eigenvalues --   -8.00396  -8.00396  -8.00374  -8.00353  -8.00353
 Alpha  occ. eigenvalues --   -7.78245  -1.20607  -1.14413  -1.14413  -0.71195
 Alpha  occ. eigenvalues --   -0.62321  -0.62321  -0.57346  -0.50373  -0.50373
 Alpha  occ. eigenvalues --   -0.49731  -0.49731  -0.47719
 Alpha virt. eigenvalues --    0.04893   0.16213   0.26130   0.26130   0.58028
 Alpha virt. eigenvalues --    0.58028   0.58593   0.64828   0.74448   0.74448
 Alpha virt. eigenvalues --    0.76774   0.79368   0.79368   0.80952   0.80952

 Mulliken charges:
               1
     1  B    0.299435
     2  Cl  -0.099812
     3  Cl  -0.099812
     4  Cl  -0.099812
 Sum of Mulliken charges =  -0.00000

 Dipole moment (field-independent basis, Debye):
    X=             -0.0000    Y=              0.0000    Z=             -0.0000  Tot=              0.0000
 Quadrupole moment (field-independent basis, Debye-Ang):
   XX=            -47.9775   YY=            -47.9775   ZZ=            -43.6038
   XY=             -0.0000   XZ=             -0.0000   YZ=             -0.0000

  Exact polarizability:  41.745   0.000  41.745   0.000  -0.000  13.221
 Approx polarizability:  36.473   0.000  36.473   0.000  -0.000  10.968

                      1                      2                      3
                     ?A                     ?A                     ?B
 Frequencies --    272.7619               272.7619               453.5323
 Red. masses --     31.2181                31.2181                34.9689
 Frc consts  --      1.3684                 1.3684                 4.2379
 IR Inten    --      2.9086                 2.9086                 0.0000
 Raman Activ --      5.8409                 5.8409                 9.5373

                      4                      5                      6
                     A2"                    ?A                     ?A
 Frequencies --    477.5260               917.8898               917.8899
 Red. masses --     11.7756                12.2721                12.2721
 Frc consts  --      1.5821                 6.0919                 6.0919
 IR Inten    --     34.7327               390.0550               390.0550
 Raman Activ --      0.0000                 0.0116                 0.0116

 - Thermochemistry -
 -------------------
 Temperature   298.150 Kelvin.  Pressure   1.00000 Atm.
 Atom     1 has atomic number  5 and mass  11.00931

 Molecular mass:   115.91586 amu.
 Principal axes and moments of inertia in atomic units:
                           1         2         3
     Eigenvalues --   587.72271 587.722711175.44542
           X            0.27077   0.96264   0.00000
           Y            0.96264  -0.27077   0.00000
           Z            0.00000   0.00000   1.00000
 This molecule is an oblate symmetric top.
 Rotational symmetry number  6.
 Warning -- assumption of classical behavior for rotation
           may cause significant error
 Rotational temperatures (Kelvin)      0.14737     0.14737     0.07369
 Rotational constants (GHZ):           3.07074     3.07074     1.53537
 Zero-point vibrational energy      19812.3 (Joules/Mol)
                                    4.73526 (Kcal/Mol)
 Warning -- explicit consideration of   4 degrees of freedom as
           vibrations may cause significant error
 Vibrational temperatures:    392.44   392.44   652.53   687.05  1320.64
          (Kelvin)           1320.64

 Zero-point correction=                           0.007546 (Hartree/Particle)
 Thermal correction to Energy=                    0.011892
 Thermal correction to Enthalpy=                  0.012837
 Thermal correction to Gibbs Free Energy=        -0.019955
 Sum of electronic and zero-point Energies=          -1396.525567
 Sum of electronic and thermal Energies=             -1396.521221
 Sum of electronic and thermal Enthalpies=           -1396.520276
 Sum of electronic and thermal Free Energies=        -1396.553068

                     E (Thermal)             CV                S
                      KCal/Mol        Cal/Mol-Kelvin    Cal/Mol-Kelvin
 Total                    7.463             13.014             69.015
 Electronic               0.000              0.000              0.000
 Translational            0.889              2.981             40.158
 Rotational               0.889              2.981             23.937
 Vibrational              5.685              7.052              4.919
 Vibration     1          0.676              1.724              1.579
 Vibration     2          0.676              1.724              1.579
 Vibration     3          0.812              1.353              0.785
 Vibration     4          0.834              1.300              0.717

 Optimization completed.
    -- Stationary point found.
 Normal termination of Gaussian 16 at Mon Jun 16 21:13:56 2025.
