 Gaussian 16, Revision B.01,
 Gaussian 16:  EM64L-G16RevB.01 20-Dec-2017

 -------------------------------------
 # hf/3-21g pop=full geom=connectivity
 -------------------------------------

 -------
 BCl3 sp
 -------
 Symbolic Z-matrix:
 Charge =  0 Multiplicity = 1

                         Standard orientation:
 ---------------------------------------------------------------------
 Center     Atomic      Atomic             Coordinates (Angstroms)
 Number     Number       Type             X           Y           Z
 ---------------------------------------------------------------------
      1          5           0        0.000000    0.000000    0.000000
      2         17           0        0.000000    1.771336    0.000000
      3         17           0        1.534022   -0.885668    0.000000
      4         17           0       -1.534022   -0.885668    0.000000
 ---------------------------------------------------------------------

 SCF Done:  E(RHF) =  -1396.53311295     A.U. after   10 cycles

 The electronic state is 1-A1'.
 Alpha  occ. eigenvalues -- -104.14847-104.14847-104.14809 -10.54515 -10.54515
 Alpha  occ. eigenvalues --  -10.54391  -8.00778  -8.00778  -8.00759  -8.00400
 Alpha  occ. eigenvalues --   -8.00396  -8.00396  -8.00374  -8.00353  -8.00353
 Alpha  occ. eigenvalues --   -7.78245  -1.20607  -1.14413  -1.14413  -0.71195
 Alpha  occ. eigenvalues --   -0.62321  -0.62321  -0.57346  -0.50373  -0.50373
 Alpha  occ. eigenvalues --   -0.49731  -0.49731  -0.47719
 Alpha virt. eigenvalues --    0.04893   0.16213   0.26130   0.26130   0.58028
 Alpha virt. eigenvalues --    0.58028   0.58593   0.64828   0.74448   0.74448
 Alpha virt. eigenvalues --    0.76774   0.79368   0.79368   0.80952   0.80952

 Mulliken charges:
               1
     1  B    0.299434
     2  Cl  -0.099811
     3  Cl  -0.099811
     4  Cl  -0.099811
 Sum of Mulliken charges =   0.00000

 Dipole moment (field-independent basis, Debye):
    X=              0.0000    Y=             -0.0000    Z=             -0.0000  Tot=              0.0000
 Quadrupole moment (field-independent basis, Debye-Ang):
   XX=            -47.9775   YY=            -47.9775   ZZ=            -43.6038
   XY=              0.0000   XZ=             -0.0000   YZ=             -0.0000

 Normal termination of Gaussian 16 at Mon Jun 16 21:14:46 2025.
