 Gaussian 16, Revision B.01,
 Gaussian 16:  EM64L-G16RevB.01 20-Dec-2017

 -------------------------------------
 # hf/3-21g pop=full geom=connectivity
 -------------------------------------

 -------------------
 Title Card Required
 -------------------
 Symbolic Z-matrix:
 Charge =  0 Multiplicity = 1

                         Standard orientation:
 ---------------------------------------------------------------------
 Center     Atomic      Atomic             Coordinates (Angstroms)
 Number     Number       Type             X           Y           Z
 ---------------------------------------------------------------------
      1          5           0        0.000000    0.000000    0.430677
      2         17           0       -0.000000    1.812230   -0.042223
      3         17           0        1.569437   -0.906115   -0.042223
      4         17           0       -1.569437   -0.906115   -0.042223
 ---------------------------------------------------------------------

 SCF Done:  E(RHF) =  -1396.49524523     A.U. after   11 cycles

 The electronic state is 1-A1.
 Alpha  occ. eigenvalues -- -104.15010-104.15010-104.14982 -10.54423 -10.54423
 Alpha  occ. eigenvalues --  -10.54331  -8.00699  -8.00699  -8.00677  -8.00335
 Alpha  occ. eigenvalues --   -8.00335  -8.00328  -8.00313  -8.00288  -8.00288
 Alpha  occ. eigenvalues --   -7.81495  -1.18190  -1.12677  -1.12677  -0.70720
 Alpha  occ. eigenvalues --   -0.59882  -0.59882  -0.55585  -0.50199  -0.50199
 Alpha  occ. eigenvalues --   -0.48685  -0.48685  -0.47630
 Alpha virt. eigenvalues --   -0.02210   0.15990   0.19397   0.19397   0.56856
 Alpha virt. eigenvalues --    0.56856   0.57656   0.64498   0.73681   0.73681
 Alpha virt. eigenvalues --    0.74886   0.74886   0.76019   0.81305   0.83975

 Mulliken charges:
               1
     1  B    0.340107
     2  Cl  -0.113369
     3  Cl  -0.113369
     4  Cl  -0.113369
 Sum of Mulliken charges =   0.00000

 Dipole moment (field-independent basis, Debye):
    X=              0.0000    Y=              0.0000    Z=              1.4920  Tot=              1.4920
 Quadrupole moment (field-independent basis, Debye-Ang):
   XX=            -48.8443   YY=            -48.8443   ZZ=            -42.9023
   XY=              0.0000   XZ=              0.0000   YZ=             -0.0000

 Normal termination of Gaussian 16 at Tue Jun 17 15:56:17 2025.
