 Gaussian 16, Revision B.01,
 Gaussian 16:  EM64L-G16RevB.01 20-Dec-2017

 ----------------------------------------------
 # opt freq hf/3-21g pop=full geom=connectivity
 ----------------------------------------------

 -------------------
 Title Card Required
 -------------------
 Symbolic Z-matrix:
 Charge =  0 Multiplicity = 1

 SCF Done:  E(RHF) =  -1737.23929487     A.U. after   11 cycles
 SCF Done:  E(RHF) =  -1737.24876886     A.U. after   12 cycles
 SCF Done:  E(RHF) =  -1737.24972311     A.U. after    9 cycles
 SCF Done:  E(RHF) =  -1737.24993174     A.U. after    9 cycles
 SCF Done:  E(RHF) =  -1737.24994661     A.U. after    8 cycles
 SCF Done:  E(RHF) =  -1737.24994834     A.U. after    7 cycles
 Optimization completed.
    -- Stationary point found.
 Normal termination of Gaussian 16 at Tue Jun 17 15:50:32 2025.

 --------------------------------------------------------------
 #N Geom=AllCheck Guess=TCheck SCRF=Check GenChk RHF/3-21G Freq
 --------------------------------------------------------------

 Structure from the checkpoint file:  "PH3_BCl3_adduct_opt.chk"
 -------------------
 Title Card Required
 -------------------
 Charge =  0 Multiplicity = 1

                         Standard orientation:
 ---------------------------------------------------------------------
 Center     Atomic      Atomic             Coordinates (Angstroms)
 Number     Number       Type             X           Y           Z
 ---------------------------------------------------------------------
      1          5           0        0.000000    0.000000   -0.198057
      2         15           0       -0.000000   -0.000000    1.863118
      3         17           0       -0.000000    1.812230   -0.670957
      4         17           0        1.569437   -0.906115   -0.670957
      5         17           0       -1.569437   -0.906115   -0.670957
      6          1           0        0.000000   -1.281049    2.420769
      7          1           0        1.109421    0.640525    2.420769
      8          1           0       -1.109421    0.640525    2.420769
 ---------------------------------------------------------------------

 SCF Done:  E(RHF) =  -1737.24994834     A.U. after    1 cycles

 The electronic state is 1-A1.
 Alpha  occ. eigenvalues -- -104.09370-104.09370-104.09344 -79.49254 -10.48858
 Alpha  occ. eigenvalues --  -10.48858 -10.48777  -7.95158  -7.95158  -7.95138
 Alpha  occ. eigenvalues --   -7.94810  -7.94810  -7.94799  -7.94799  -7.94776
 Alpha  occ. eigenvalues --   -7.94776  -7.73197  -7.57087  -5.45575  -5.45575
 Alpha  occ. eigenvalues --   -5.45503  -1.14094  -1.08041  -1.08041  -0.98377
 Alpha  occ. eigenvalues --   -0.69957  -0.64196  -0.64196  -0.57514  -0.55189
 Alpha  occ. eigenvalues --   -0.55189  -0.46606  -0.46606  -0.44290  -0.44290
 Alpha  occ. eigenvalues --   -0.43026  -0.42612
 Alpha virt. eigenvalues --    0.12340   0.12340   0.13356   0.17541   0.21119
 Alpha virt. eigenvalues --    0.24017   0.24017   0.52544   0.52544   0.53207
 Alpha virt. eigenvalues --    0.57556   0.66367   0.66367   0.67870   0.77431

 Mulliken charges:
               1
     1  B   -0.160235
     2  P    0.487536
     3  Cl  -0.165698
     4  Cl  -0.165698
     5  Cl  -0.165698
     6  H    0.056598
     7  H    0.056598
     8  H    0.056598
 Sum of Mulliken charges =   0.00000

 Dipole moment (field-independent basis, Debye):
    X=              0.0000    Y=             -0.0000    Z=              7.6801  Tot=              7.6801
 Quadrupole moment (field-independent basis, Debye-Ang):
   XX=            -66.0392   YY=            -66.0392   ZZ=            -50.5569
   XY=             -0.0000   XZ=             -0.0000   YZ=             -0.0000

  Exact polarizability:  58.398  -0.000  58.398  -0.000   0.000  53.374
 Approx polarizability:  52.158  -0.000  52.158  -0.000  -0.000  41.161

                      1                      2                      3
                      E                      E                     A2
 Frequencies --    158.1574               158.1574               203.8887
 Red. masses --      5.9732                 5.9732                 1.0219
 Frc consts  --      0.0880                 0.0880                 0.0250
 IR Inten    --      1.7223                 1.7223                 0.0000
 Raman Activ --      1.2173                 1.2173                 0.0000

                      4                      5                      6
                      E                      E                     A1
 Frequencies --    237.8992               237.8992               248.7995
 Red. masses --     13.1793                13.1793                10.6176
 Frc consts  --      0.4395                 0.4395                 0.3872
 IR Inten    --      0.5795                 0.5795                 2.1939
 Raman Activ --      5.0408                 5.0408                 5.3113

                      7                      8                      9
                     A1                      E                      E
 Frequencies --    380.8076               565.3790               565.3790
 Red. masses --     20.4415                 1.5365                 1.5365
 Frc consts  --      1.7465                 0.2894                 0.2894
 IR Inten    --      1.9791                41.8143                41.8143
 Raman Activ --     11.9157                18.7571                18.7571

                     10                     11                     12
                     A1                      E                      E
 Frequencies --    580.6275               751.3646               751.3646
 Red. masses --      9.6976                 4.5200                 4.5200
 Frc consts  --      1.9262                 1.5034                 1.5034
 IR Inten    --    309.5723               195.5230               195.5230
 Raman Activ --      2.8062                 0.4328                 0.4328

                     13                     14                     15
                     A1                      E                      E
 Frequencies --   1037.2746              1202.5134              1202.5134
 Red. masses --      1.1284                 1.0287                 1.0287
 Frc consts  --      0.7153                 0.8764                 0.8764
 IR Inten    --     40.8259                17.5435                17.5435
 Raman Activ --     11.9509                36.7811                36.7811

                     16                     17                     18
                     A1                      E                      E
 Frequencies --   2545.3572              2567.4437              2567.4437
 Red. masses --      1.0215                 1.0451                 1.0451
 Frc consts  --      3.8993                 4.0590                 4.0590
 IR Inten    --      2.3485                 1.9375                 1.9375
 Raman Activ --    237.7547               121.4995               121.4995

 - Thermochemistry -
 -------------------
 Temperature   298.150 Kelvin.  Pressure   1.00000 Atm.
 Atom     1 has atomic number  5 and mass  11.00931

 Molecular mass:   149.91310 amu.
 Principal axes and moments of inertia in atomic units:
                           1         2         3
     Eigenvalues --  1240.090481240.090481248.06405
           X            0.70711   0.70711   0.00000
           Y           -0.70711   0.70711   0.00000
           Z            0.00000   0.00000   1.00000
 This molecule is an oblate symmetric top.
 Rotational symmetry number  3.
 Warning -- assumption of classical behavior for rotation
           may cause significant error
 Rotational temperatures (Kelvin)      0.06984     0.06984     0.06940
 Rotational constants (GHZ):           1.45533     1.45533     1.44603
 Zero-point vibrational energy      95475.6 (Joules/Mol)
                                   22.81921 (Kcal/Mol)
 Warning -- explicit consideration of  10 degrees of freedom as
           vibrations may cause significant error
 Vibrational temperatures:    227.55   227.55   293.35   342.28   342.28
          (Kelvin)            357.97   547.90   813.45   813.45   835.39
                             1081.05  1081.05  1492.41  1730.15  1730.15
                             3662.20  3693.98  3693.98

 Zero-point correction=                           0.036365 (Hartree/Particle)
 Thermal correction to Energy=                    0.043618
 Thermal correction to Enthalpy=                  0.044562
 Thermal correction to Gibbs Free Energy=         0.004836
 Sum of electronic and zero-point Energies=          -1737.213584
 Sum of electronic and thermal Energies=             -1737.206330
 Sum of electronic and thermal Enthalpies=           -1737.205386
 Sum of electronic and thermal Free Energies=        -1737.245112

                     E (Thermal)             CV                S
                      KCal/Mol        Cal/Mol-Kelvin    Cal/Mol-Kelvin
 Total                   27.371             23.926             83.611
 Electronic               0.000              0.000              0.000
 Translational            0.889              2.981             40.925
 Rotational               0.889              2.981             26.858
 Vibrational             25.593             17.965             15.828
 Vibration     1          0.621              1.893              2.572
 Vibration     2          0.621              1.893              2.572
 Vibration     3          0.640              1.834              2.098
 Vibration     4          0.656              1.783              1.819
 Vibration     5          0.656              1.783              1.819
 Vibration     6          0.662              1.765              1.739
 Vibration     7          0.751              1.511              1.036
 Vibration     8          0.921              1.106              0.513
 Vibration     9          0.921              1.106              0.513
 Vibration    10          0.937              1.073              0.484

 Optimization completed.
    -- Stationary point found.
 Normal termination of Gaussian 16 at Tue Jun 17 15:50:34 2025.
