 Gaussian 16, Revision B.01,
 Gaussian 16:  EM64L-G16RevB.01 20-Dec-2017

 -------------------------------------
 # hf/3-21g pop=full geom=connectivity
 -------------------------------------

 -------------------
 Title Card Required
 -------------------
 Symbolic Z-matrix:
 Charge =  0 Multiplicity = 1

                         Standard orientation:
 ---------------------------------------------------------------------
 Center     Atomic      Atomic             Coordinates (Angstroms)
 Number     Number       Type             X           Y           Z
 ---------------------------------------------------------------------
      1         15           0       -0.000000   -0.000000    0.092942
      2          1           0        0.000000    1.281049   -0.464709
      3          1           0        1.109421   -0.640525   -0.464709
      4          1           0       -1.109421   -0.640525   -0.464709
 ---------------------------------------------------------------------

 SCF Done:  E(RHF) =  -340.697617456     A.U. after    9 cycles

 The electronic state is 1-A.
 Alpha  occ. eigenvalues --  -79.37674  -7.45354  -5.33888  -5.33888  -5.33505
 Alpha  occ. eigenvalues --   -0.87466  -0.54679  -0.54679  -0.35352
 Alpha virt. eigenvalues --    0.19883   0.19883   0.24065   0.59684   0.59684
 Alpha virt. eigenvalues --    0.60971   0.66285   1.19445   1.27763   1.27763

 Mulliken charges:
               1
     1  P    0.091055
     2  H   -0.030352
     3  H   -0.030352
     4  H   -0.030352
 Sum of Mulliken charges =   0.00000

 Dipole moment (field-independent basis, Debye):
    X=             -0.0000    Y=             -0.0000    Z=             -1.5025  Tot=              1.5025
 Quadrupole moment (field-independent basis, Debye-Ang):
   XX=            -14.9298   YY=            -14.9298   ZZ=            -18.4792
   XY=              0.0000   XZ=             -0.0000   YZ=              0.0000

 Normal termination of Gaussian 16 at Tue Jun 17 15:57:11 2025.
