 Gaussian 16, Revision B.01,
 Gaussian 16:  EM64L-G16RevB.01 20-Dec-2017

 -------------------------------------
 # hf/3-21g pop=full geom=connectivity
 -------------------------------------

 -------------------
 Title Card Required
 -------------------
 Symbolic Z-matrix:
 Charge =  0 Multiplicity = 1

                         Standard orientation:
 ---------------------------------------------------------------------
 Center     Atomic      Atomic             Coordinates (Angstroms)
 Number     Number       Type             X           Y           Z
 ---------------------------------------------------------------------
      1          5           0        0.000000   -0.000000   -0.198057
      2         15           0        0.000000   -0.000000    1.863118
      3         17           0        0.000000    1.812230   -0.670957
      4         17           0        1.569437   -0.906115   -0.670957
      5         17           0       -1.569437   -0.906115   -0.670957
      6          1           0        0.000000   -1.281049    2.420769
      7          1           0        1.109421    0.640525    2.420769
      8          1           0       -1.109421    0.640525    2.420769
 ---------------------------------------------------------------------

 SCF Done:  E(RHF) =  -1737.24994834     A.U. after   11 cycles

 The electronic state is 1-A1.
 Alpha  occ. eigenvalues -- -104.09370-104.09370-104.09344 -79.49254 -10.48858
 Alpha  occ. eigenvalues --  -10.48858 -10.48777  -7.95158  -7.95158  -7.95138
 Alpha  occ. eigenvalues --   -7.94810  -7.94810  -7.94799  -7.94799  -7.94776
 Alpha  occ. eigenvalues --   -7.94776  -7.73197  -7.57087  -5.45575  -5.45575
 Alpha  occ. eigenvalues --   -5.45503  -1.14094  -1.08041  -1.08041  -0.98377
 Alpha  occ. eigenvalues --   -0.69957  -0.64196  -0.64196  -0.57514  -0.55189
 Alpha  occ. eigenvalues --   -0.55189  -0.46606  -0.46606  -0.44290  -0.44290
 Alpha  occ. eigenvalues --   -0.43026  -0.42612
 Alpha virt. eigenvalues --    0.12340   0.12340   0.13356   0.17541   0.21119
 Alpha virt. eigenvalues --    0.24017   0.24017   0.52544   0.52544   0.53207
 Alpha virt. eigenvalues --    0.57556   0.66367   0.66367   0.67870   0.77431

 Mulliken charges:
               1
     1  B   -0.160235
     2  P    0.487536
     3  Cl  -0.165698
     4  Cl  -0.165698
     5  Cl  -0.165698
     6  H    0.056598
     7  H    0.056598
     8  H    0.056598
 Sum of Mulliken charges =  -0.00000

 Dipole moment (field-independent basis, Debye):
    X=              0.0000    Y=              0.0000    Z=              7.6801  Tot=              7.6801
 Quadrupole moment (field-independent basis, Debye-Ang):
   XX=            -66.0392   YY=            -66.0392   ZZ=            -50.5569
   XY=              0.0000   XZ=              0.0000   YZ=             -0.0000

 Normal termination of Gaussian 16 at Tue Jun 17 15:51:19 2025.
