 Gaussian 16, Revision B.01,
 Gaussian 16:  EM64L-G16RevB.01 20-Dec-2017

 -----------------------------------------
 # opt freq am1 pop=full geom=connectivity
 -----------------------------------------

 -----------------------------------------
 methyl_thiophene_isomer opt freq with AM1
 -----------------------------------------
 Symbolic Z-matrix:
 Charge =  0 Multiplicity = 1

 SCF Done:  E(RAM1) =  0.103527205402     A.U. after   14 cycles
 SCF Done:  E(RAM1) =  0.627604043608E-01 A.U. after   12 cycles
 SCF Done:  E(RAM1) =  0.526579112746E-01 A.U. after   13 cycles
 SCF Done:  E(RAM1) =  0.521624158367E-01 A.U. after   11 cycles
 SCF Done:  E(RAM1) =  0.521093065797E-01 A.U. after   11 cycles
 SCF Done:  E(RAM1) =  0.521346299471E-01 A.U. after   11 cycles
 SCF Done:  E(RAM1) =  0.520702624250E-01 A.U. after   10 cycles
 SCF Done:  E(RAM1) =  0.520666049865E-01 A.U. after   10 cycles
 SCF Done:  E(RAM1) =  0.520658057706E-01 A.U. after    9 cycles
 Optimization completed.
    -- Stationary point found.
 Normal termination of Gaussian 16 at Sat Jun 14 14:52:24 2025.

 -------------------------------------------------------------
 #N Geom=AllCheck Guess=TCheck SCRF=Check GenChk RAM1/ZDO Freq
 -------------------------------------------------------------

 Structure from the checkpoint file:  "meth_thiophene_isomer_opt.chk"
 -----------------------------------------
 methyl_thiophene_isomer opt freq with AM1
 -----------------------------------------
 Charge =  0 Multiplicity = 1

                         Standard orientation:
 ---------------------------------------------------------------------
 Center     Atomic      Atomic             Coordinates (Angstroms)
 Number     Number       Type             X           Y           Z
 ---------------------------------------------------------------------
      1          6           0       -0.945947    1.171470   -0.000167
      2          6           0        0.398426    1.270140    0.001053
      3          6           0        1.094341   -0.017398    0.000493
      4          6           0        0.121519   -1.150986    0.001689
      5         16           0       -1.520882   -0.423161   -0.000887
      6          1           0       -1.650006    2.005559   -0.000413
      7          1           0        0.968675    2.203814    0.001997
      8          6           0        2.421086   -0.170553   -0.001378
      9          1           0        0.237377   -1.788606    0.909834
     10          1           0        0.238896   -1.792786   -0.903240
     11          1           0        2.895932   -1.159488   -0.002566
     12          1           0        3.106694    0.686042   -0.001566
 ---------------------------------------------------------------------

 SCF Done:  E(RAM1) =  0.520658057702E-01 A.U. after    2 cycles

 The electronic state is 1-A.
 Alpha  occ. eigenvalues --   -1.39858  -1.17051  -1.05223  -0.86478  -0.73058
 Alpha  occ. eigenvalues --   -0.66357  -0.59689  -0.56928  -0.53235  -0.51295
 Alpha  occ. eigenvalues --   -0.48882  -0.45127  -0.44085  -0.42112  -0.38824
 Alpha  occ. eigenvalues --   -0.29800
 Alpha virt. eigenvalues --    0.00284   0.03057   0.04614   0.06742   0.12935
 Alpha virt. eigenvalues --    0.13720   0.14603   0.15456   0.16275   0.16831
 Alpha virt. eigenvalues --    0.17957   0.18522   0.19763   0.20711

 Mulliken charges:
               1
     1  C   -0.298288
     2  C   -0.173121
     3  C   -0.082959
     4  C   -0.253429
     5  S    0.203929
     6  H    0.166679
     7  H    0.152602
     8  C   -0.201407
     9  H    0.123606
    10  H    0.123653
    11  H    0.117572
    12  H    0.121163
 Sum of Mulliken charges =  -0.00000

 Dipole moment (field-independent basis, Debye):
    X=              1.0633    Y=             -0.0053    Z=              0.0020  Tot=              1.0633
 N-N= 1.283118287174D+02 E-N=-1.832357845018D+02  KE=-5.212368930542D+01
 Orbital energies and kinetic energies (alpha):
                                 1                 2
   1         O                -1.398578         -2.408965
   2         O                -1.170511         -2.138868
   3         O                -1.052226         -1.955896
   4         O                -0.864776         -1.803083
   5         O                -0.730581         -1.610697
   6         O                -0.663575         -1.677875
   7         O                -0.596888         -1.467215

  Exact polarizability: 108.805   3.115  55.793  -0.008   0.010  16.480
 Approx polarizability:  76.403  -0.281  39.611  -0.002   0.007  10.963

                      1                      2                      3
                      A                      A                      A
 Frequencies --    113.2532               321.3996               363.2065
 Red. masses --      3.0190                 2.5973                 2.5028
 Frc consts  --      0.0228                 0.1581                 0.1945
 IR Inten    --      0.7331                 6.6503                 0.7293

                      4                      5                      6
                      A                      A                      A
 Frequencies --    501.8059               525.1909               604.5906
 Red. masses --      8.2093                 1.8469                 1.1094
 Frc consts  --      1.2179                 0.3001                 0.2389
 IR Inten    --      0.3254                 8.5636                 3.5525

                      7                      8                      9
                      A                      A                      A
 Frequencies --    673.7742               780.5072               827.8514
 Red. masses --      7.7889                 4.8572                 1.2777
 Frc consts  --      2.0833                 1.7434                 0.5159
 IR Inten    --      7.2612                36.1183                42.3867

                     10                     11                     12
                      A                      A                      A
 Frequencies --    828.2046               869.5656               960.9756
 Red. masses --      5.3402                 1.4410                 1.4823
 Frc consts  --      2.1582                 0.6420                 0.8065
 IR Inten    --     54.7649                 4.3108                 0.4522

                     13                     14                     15
                      A                      A                      A
 Frequencies --    990.7794              1034.2459              1035.9860
 Red. masses --      1.4469                 2.0254                 1.2498
 Frc consts  --      0.8369                 1.2765                 0.7903
 IR Inten    --      0.0143                 2.3200                36.1871

                     16                     17                     18
                      A                      A                      A
 Frequencies --   1072.8286              1123.4173              1227.9645
 Red. masses --      1.3164                 1.0880                 1.2758
 Frc consts  --      0.8927                 0.8091                 1.1334
 IR Inten    --     16.2056                 0.6224                 3.2328

                     19                     20                     21
                      A                      A                      A
 Frequencies --   1278.1782              1370.4025              1416.5894
 Red. masses --      1.4293                 1.1345                 1.2594
 Frc consts  --      1.3758                 1.2553                 1.4890
 IR Inten    --     10.8320                 7.6291                 2.8174

                     22                     23                     24
                      A                      A                      A
 Frequencies --   1449.3583              1758.5668              1890.4211
 Red. masses --      5.1942                 9.1129                 9.7957
 Frc consts  --      6.4287                16.6044                20.6254
 IR Inten    --      1.0019                62.0654                 1.3205

                     25                     26                     27
                      A                      A                      A
 Frequencies --   3046.7420              3115.1256              3181.9463
 Red. masses --      1.0951                 1.0480                 1.1052
 Frc consts  --      5.9891                 5.9920                 6.5927
 IR Inten    --     19.2535                19.3594                11.1200

                     28                     29                     30
                      A                      A                      A
 Frequencies --   3217.7057              3224.8414              3237.3211
 Red. masses --      1.0530                 1.0776                 1.0887
 Frc consts  --      6.4238                 6.6025                 6.7225
 IR Inten    --     61.8237                78.7135                73.6644

 - Thermochemistry -
 -------------------
 Temperature   298.150 Kelvin.  Pressure   1.00000 Atm.
 Atom     1 has atomic number  6 and mass  12.00000

 Molecular mass:    98.01902 amu.
 Principal axes and moments of inertia in atomic units:
                           1         2         3
     Eigenvalues --   273.59013 695.92390 957.68228
           X            0.99963  -0.02709  -0.00005
           Y            0.02709   0.99963  -0.00003
           Z            0.00005   0.00003   1.00000
 This molecule is an asymmetric top.
 Rotational symmetry number  1.
 Rotational temperatures (Kelvin)      0.31658     0.12446     0.09044
 Rotational constants (GHZ):           6.59651     2.59330     1.88449
 Zero-point vibrational energy     251471.5 (Joules/Mol)
                                   60.10312 (Kcal/Mol)
 Warning -- explicit consideration of   6 degrees of freedom as
           vibrations may cause significant error
 Vibrational temperatures:    162.95   462.42   522.57   721.99   755.63
          (Kelvin)            869.87   969.41  1122.98  1191.09  1191.60
                             1251.11  1382.63  1425.51  1488.05  1490.55
                             1543.56  1616.35  1766.77  1839.01  1971.70
                             2038.16  2085.30  2530.19  2719.89  4383.58
                             4481.97  4578.11  4629.56  4639.83  4657.78

 Zero-point correction=                           0.095780 (Hartree/Particle)
 Thermal correction to Energy=                    0.101307
 Thermal correction to Enthalpy=                  0.102251
 Thermal correction to Gibbs Free Energy=         0.066431
 Sum of electronic and zero-point Energies=              0.147846
 Sum of electronic and thermal Energies=                 0.153372
 Sum of electronic and thermal Enthalpies=               0.154317
 Sum of electronic and thermal Free Energies=            0.118497

                     E (Thermal)             CV                S
                      KCal/Mol        Cal/Mol-Kelvin    Cal/Mol-Kelvin
 Total                   63.571             20.616             75.389
 Electronic               0.000              0.000              0.000
 Translational            0.889              2.981             39.658
 Rotational               0.889              2.981             26.703
 Vibrational             61.793             14.655              9.028
 Vibration     1          0.607              1.938              3.212
 Vibration     2          0.707              1.633              1.303
 Vibration     3          0.737              1.548              1.108
 Vibration     4          0.857              1.246              0.654
 Vibration     5          0.880              1.194              0.598
 Vibration     6          0.963              1.022              0.442

                           ! Non-Optimized Parameters !
 Normal termination of Gaussian 16 at Sat Jun 14 14:52:24 2025.
