 Gaussian 16, Revision B.01,
 Gaussian 16:  EM64L-G16RevB.01 20-Dec-2017

 --------------------------------------
 # hf/3-21g* pop=full geom=connectivity
 --------------------------------------

 ---------------------------------
 methyl_thiophene sp with HF3-21G*
 ---------------------------------
 Symbolic Z-matrix:
 Charge =  0 Multiplicity = 1

                         Standard orientation:
 ---------------------------------------------------------------------
 Center     Atomic      Atomic             Coordinates (Angstroms)
 Number     Number       Type             X           Y           Z
 ---------------------------------------------------------------------
      1          6           0        1.047612    1.118753    0.000006
      2          6           0       -0.321980    1.245711   -0.000014
      3          6           0       -0.973288   -0.035401   -0.000035
      4          6           0       -0.050921   -1.062406   -0.000019
      5         16           0        1.517158   -0.486667    0.000009
      6          1           0        1.760943    1.940722    0.000039
      7          1           0       -0.872369    2.188251   -0.000043
      8          1           0       -0.289978   -2.124154   -0.000032
      9          6           0       -2.434149   -0.190037    0.000020
     10          1           0       -2.876192    0.295725    0.906299
     11          1           0       -2.876293    0.295821   -0.906143
     12          1           0       -2.724274   -1.269408   -0.000015
 ---------------------------------------------------------------------

 SCF Done:  E(RHF) =  -587.405763216     A.U. after   14 cycles

 The electronic state is 1-A.
 Alpha  occ. eigenvalues --  -91.44408 -11.20079 -11.19325 -11.18740 -11.17973
 Alpha  occ. eigenvalues --  -11.17481  -8.95851  -6.63777  -6.63681  -6.63440
 Alpha  occ. eigenvalues --   -1.18710  -1.03676  -0.98337  -0.90917  -0.76397
 Alpha  occ. eigenvalues --   -0.73269  -0.66992  -0.57936  -0.57734  -0.56639
 Alpha  occ. eigenvalues --   -0.52986  -0.51031  -0.50380  -0.47055  -0.33430
 Alpha  occ. eigenvalues --   -0.31963
 Alpha virt. eigenvalues --    0.14066   0.21445   0.22458   0.26346   0.29184
 Alpha virt. eigenvalues --    0.30775   0.31567   0.34823   0.36664   0.36930
 Alpha virt. eigenvalues --    0.45516   0.49386   0.54104   0.61299   0.66453

 Mulliken charges:
               1
     1  C   -0.490743
     2  C   -0.230726
     3  C   -0.057348
     4  C   -0.492596
     5  S    0.462787
     6  H    0.263624
     7  H    0.240673
     8  H    0.259469
     9  C   -0.590543
    10  H    0.214277
    11  H    0.214277
    12  H    0.206849
 Sum of Mulliken charges =   0.00000

 Dipole moment (field-independent basis, Debye):
    X=             -0.8050    Y=              0.3358    Z=              0.0000  Tot=              0.8722
 Quadrupole moment (field-independent basis, Debye-Ang):
   XX=            -41.3763   YY=            -38.8193   ZZ=            -47.8752
   XY=              1.5359   XZ=              0.0001   YZ=              0.0000

 Normal termination of Gaussian 16 at Sat Jun 14 14:47:32 2025.
