 Gaussian 16, Revision B.01,
 Gaussian 16:  EM64L-G16RevB.01 20-Dec-2017

 --------------------------------------
 # hf/3-21g* pop=full geom=connectivity
 --------------------------------------

 ----------------------------------------
 methyl_thiophene_isomer sp with HF3-21G*
 ----------------------------------------
 Symbolic Z-matrix:
 Charge =  0 Multiplicity = 1

                         Standard orientation:
 ---------------------------------------------------------------------
 Center     Atomic      Atomic             Coordinates (Angstroms)
 Number     Number       Type             X           Y           Z
 ---------------------------------------------------------------------
      1          6           0       -0.945948    1.171470   -0.000167
      2          6           0        0.398425    1.270140    0.001053
      3          6           0        1.094341   -0.017398    0.000493
      4          6           0        0.121519   -1.150986    0.001689
      5         16           0       -1.520882   -0.423162   -0.000887
      6          1           0       -1.650007    2.005558   -0.000413
      7          1           0        0.968674    2.203814    0.001997
      8          6           0        2.421086   -0.170552   -0.001378
      9          1           0        0.237378   -1.788606    0.909834
     10          1           0        0.238897   -1.792786   -0.903240
     11          1           0        2.895932   -1.159487   -0.002566
     12          1           0        3.106694    0.686043   -0.001566
 ---------------------------------------------------------------------

 SCF Done:  E(RHF) =  -587.380969802     A.U. after   14 cycles

 The electronic state is 1-A.
 Alpha  occ. eigenvalues --  -91.42097 -11.21506 -11.21147 -11.20151 -11.18559
 Alpha  occ. eigenvalues --  -11.16913  -8.93600  -6.61548  -6.61410  -6.61129
 Alpha  occ. eigenvalues --   -1.17248  -1.04160  -0.99619  -0.89013  -0.77959
 Alpha  occ. eigenvalues --   -0.72663  -0.67497  -0.61729  -0.59604  -0.57051
 Alpha  occ. eigenvalues --   -0.53008  -0.49548  -0.46041  -0.45501  -0.39668
 Alpha  occ. eigenvalues --   -0.27717
 Alpha virt. eigenvalues --    0.11659   0.19773   0.23917   0.25536   0.28498
 Alpha virt. eigenvalues --    0.30292   0.31134   0.34382   0.34707   0.37306
 Alpha virt. eigenvalues --    0.43563   0.53290   0.57588   0.61909   0.65354

 Mulliken charges:
               1
     1  C   -0.440561
     2  C   -0.215464
     3  C   -0.068220
     4  C   -0.628239
     5  S    0.316696
     6  H    0.269632
     7  H    0.245322
     8  C   -0.414957
     9  H    0.259475
    10  H    0.259422
    11  H    0.206785
    12  H    0.210111
 Sum of Mulliken charges =  -0.00000

 Dipole moment (field-independent basis, Debye):
    X=              0.9157    Y=              0.2576    Z=              0.0031  Tot=              0.9513
 Quadrupole moment (field-independent basis, Debye-Ang):
   XX=            -44.0151   YY=            -38.1028   ZZ=            -47.9733
   XY=             -2.3637   XZ=             -0.0016   YZ=              0.0002

 Normal termination of Gaussian 16 at Sat Jun 14 14:54:38 2025.
