 Gaussian 16, Revision B.01,
 Gaussian 16:  EM64L-G16RevB.01 20-Dec-2017

 -----------------------------------------
 # opt freq am1 pop=full geom=connectivity
 -----------------------------------------

 ----------------------------------
 methyl_thiophene opt freq with AM1
 ----------------------------------
 Symbolic Z-matrix:
 Charge =  0 Multiplicity = 1

 SCF Done:  E(RAM1) =  0.605901997205E-01 A.U. after   13 cycles
 SCF Done:  E(RAM1) =  0.361492487381E-01 A.U. after   13 cycles
 SCF Done:  E(RAM1) =  0.313973126891E-01 A.U. after   13 cycles
 SCF Done:  E(RAM1) =  0.310529368410E-01 A.U. after   13 cycles
 SCF Done:  E(RAM1) =  0.307634134548E-01 A.U. after   12 cycles
 SCF Done:  E(RAM1) =  0.307297577435E-01 A.U. after   11 cycles
 SCF Done:  E(RAM1) =  0.307206932241E-01 A.U. after   11 cycles
 SCF Done:  E(RAM1) =  0.307150094687E-01 A.U. after   11 cycles
 SCF Done:  E(RAM1) =  0.307074587158E-01 A.U. after   11 cycles
 SCF Done:  E(RAM1) =  0.306999799897E-01 A.U. after   12 cycles
 SCF Done:  E(RAM1) =  0.306883972185E-01 A.U. after   12 cycles
 SCF Done:  E(RAM1) =  0.306770912767E-01 A.U. after   12 cycles
 SCF Done:  E(RAM1) =  0.306705545063E-01 A.U. after   11 cycles
 SCF Done:  E(RAM1) =  0.306659193604E-01 A.U. after   10 cycles
 SCF Done:  E(RAM1) =  0.306656432715E-01 A.U. after   10 cycles
 SCF Done:  E(RAM1) =  0.306656055758E-01 A.U. after   10 cycles
 SCF Done:  E(RAM1) =  0.306656014309E-01 A.U. after    9 cycles
 Optimization completed.
    -- Stationary point found.
 Normal termination of Gaussian 16 at Sat Jun 14 14:44:07 2025.

 -------------------------------------------------------------
 #N Geom=AllCheck Guess=TCheck SCRF=Check GenChk RAM1/ZDO Freq
 -------------------------------------------------------------

 Structure from the checkpoint file:  "meth_thiophene_opt.chk"
 ----------------------------------
 methyl_thiophene opt freq with AM1
 ----------------------------------
 Charge =  0 Multiplicity = 1

                         Standard orientation:
 ---------------------------------------------------------------------
 Center     Atomic      Atomic             Coordinates (Angstroms)
 Number     Number       Type             X           Y           Z
 ---------------------------------------------------------------------
      1          6           0        1.047612    1.118753    0.000006
      2          6           0       -0.321980    1.245711   -0.000014
      3          6           0       -0.973288   -0.035401   -0.000035
      4          6           0       -0.050921   -1.062406   -0.000019
      5         16           0        1.517158   -0.486667    0.000009
      6          1           0        1.760943    1.940722    0.000039
      7          1           0       -0.872369    2.188251   -0.000043
      8          1           0       -0.289977   -2.124154   -0.000032
      9          6           0       -2.434149   -0.190037    0.000020
     10          1           0       -2.876192    0.295725    0.906299
     11          1           0       -2.876293    0.295821   -0.906143
     12          1           0       -2.724274   -1.269408   -0.000015
 ---------------------------------------------------------------------

 SCF Done:  E(RAM1) =  0.306656014311E-01 A.U. after    2 cycles

 The electronic state is 1-A.
 Alpha  occ. eigenvalues --   -1.40614  -1.15409  -1.04234  -0.87646  -0.72828
 Alpha  occ. eigenvalues --   -0.67359  -0.58990  -0.53821  -0.51312  -0.50424
 Alpha  occ. eigenvalues --   -0.48781  -0.47521  -0.45311  -0.42635  -0.34829
 Alpha  occ. eigenvalues --   -0.32928
 Alpha virt. eigenvalues --    0.00999   0.03579   0.05160   0.06165   0.14658
 Alpha virt. eigenvalues --    0.15873   0.16103   0.16969   0.17005   0.17479
 Alpha virt. eigenvalues --    0.18119   0.18858   0.20365   0.20928

 Mulliken charges:
               1
     1  C   -0.436386
     2  C   -0.153823
     3  C   -0.097812
     4  C   -0.442906
     5  S    0.548482
     6  H    0.169088
     7  H    0.152367
     8  H    0.169584
     9  C   -0.156406
    10  H    0.083798
    11  H    0.083798
    12  H    0.080217
 Sum of Mulliken charges =   0.00000

 Dipole moment (field-independent basis, Debye):
    X=              0.0693    Y=             -0.1079    Z=              0.0001  Tot=              0.1282
 N-N= 1.284667971010D+02 E-N=-1.837899719826D+02  KE=-5.198941605255D+01
 Orbital energies and kinetic energies (alpha):
                                 1                 2
   1         O                -1.406143         -2.434714
   2         O                -1.154091         -2.096997
   3         O                -1.042343         -1.979789
   4         O                -0.876456         -1.832211
   5         O                -0.728283         -1.660702
   6         O                -0.673590         -1.657047
   7         O                -0.589904         -1.521392

  Exact polarizability:  80.957  -6.256  65.544   0.001   0.000  18.059
 Approx polarizability:  60.999  -3.908  55.057   0.001   0.000  11.788

                      1                      2                      3
                      A                      A                      A
 Frequencies --     34.8423               224.1938               333.0763
 Red. masses --      1.0463                 3.2677                 2.7321
 Frc consts  --      0.0007                 0.0968                 0.1786
 IR Inten    --      0.1391                 3.0126                 2.4636

                      4                      5                      6
                      A                      A                      A
 Frequencies --    413.4828               579.9298               583.7958
 Red. masses --      2.8771                 2.1740                 7.6099
 Frc consts  --      0.2898                 0.4308                 1.5281
 IR Inten    --      0.0581                12.6597                 6.2119

                      7                      8                      9
                      A                      A                      A
 Frequencies --    692.8446               829.0133               841.7161
 Red. masses --      7.0196                 1.2462                 5.8069
 Frc consts  --      1.9853                 0.5046                 2.4239
 IR Inten    --      8.0946                56.7940               100.1812

                     10                     11                     12
                      A                      A                      A
 Frequencies --    875.7900               879.1913               951.2850
 Red. masses --      1.3662                 4.7409                 1.5174
 Frc consts  --      0.6174                 2.1591                 0.8091
 IR Inten    --     35.3695                14.3738                 3.3177

                     13                     14                     15
                      A                      A                      A
 Frequencies --   1033.1038              1069.1889              1073.4881
 Red. masses --      1.3291                 1.3618                 1.5245
 Frc consts  --      0.8358                 0.9172                 1.0351
 IR Inten    --      7.7573                 0.9681                 5.4265

                     16                     17                     18
                      A                      A                      A
 Frequencies --   1127.4256              1178.5218              1264.8924
 Red. masses --      1.1168                 1.5713                 1.6700
 Frc consts  --      0.8364                 1.2859                 1.5743
 IR Inten    --      5.1064                 4.6591                 2.8685

                     19                     20                     21
                      A                      A                      A
 Frequencies --   1379.1800              1382.4117              1433.8217
 Red. masses --      1.0816                 1.0692                 1.3030
 Frc consts  --      1.2122                 1.2039                 1.5783
 IR Inten    --      1.4379                 2.2394                 0.1794

                     22                     23                     24
                      A                      A                      A
 Frequencies --   1540.4114              1622.3234              1744.0390
 Red. masses --      7.4455                 8.4317                 9.6679
 Frc consts  --     10.4093                13.0749                17.3258
 IR Inten    --     55.4140                25.1918                 1.8279

                     25                     26                     27
                      A                      A                      A
 Frequencies --   3043.1813              3055.8276              3146.2824
 Red. masses --      1.0893                 1.0905                 1.0284
 Frc consts  --      5.9439                 5.9995                 5.9980
 IR Inten    --      1.4524                 1.8185                 0.9462

                     28                     29                     30
                      A                      A                      A
 Frequencies --   3245.2138              3253.7087              3260.6207
 Red. masses --      1.0803                 1.0819                 1.0895
 Frc consts  --      6.7034                 6.7482                 6.8247
 IR Inten    --     56.1445               159.6585                12.9000

 - Thermochemistry -
 -------------------
 Temperature   298.150 Kelvin.  Pressure   1.00000 Atm.
 Atom     1 has atomic number  6 and mass  12.00000

 Molecular mass:    98.01902 amu.
 Principal axes and moments of inertia in atomic units:
                           1         2         3
     Eigenvalues --   256.06356 713.44434 957.68534
           X            0.99958   0.02911  -0.00000
           Y           -0.02911   0.99958   0.00000
           Z            0.00000  -0.00000   1.00000
 This molecule is an asymmetric top.
 Rotational symmetry number  1.
 Rotational temperatures (Kelvin)      0.33825     0.12140     0.09044
 Rotational constants (GHZ):           7.04802     2.52962     1.88448
 Zero-point vibrational energy     251770.9 (Joules/Mol)
                                   60.17468 (Kcal/Mol)
 Warning -- explicit consideration of   6 degrees of freedom as
           vibrations may cause significant error
 Vibrational temperatures:     50.13   322.56   479.22   594.91   834.39
          (Kelvin)            839.95   996.85  1192.77  1211.04  1260.07
                             1264.96  1368.69  1486.41  1538.32  1544.51
                             1622.11  1695.63  1819.90  1984.33  1988.98
                             2062.95  2216.31  2334.16  2509.28  4378.46
                             4396.65  4526.80  4669.14  4681.36  4691.31

 Zero-point correction=                           0.095894 (Hartree/Particle)
 Thermal correction to Energy=                    0.101724
 Thermal correction to Enthalpy=                  0.102668
 Thermal correction to Gibbs Free Energy=         0.065405
 Sum of electronic and zero-point Energies=              0.126560
 Sum of electronic and thermal Energies=                 0.132389
 Sum of electronic and thermal Enthalpies=               0.133333
 Sum of electronic and thermal Free Energies=            0.096071

                     E (Thermal)             CV                S
                      KCal/Mol        Cal/Mol-Kelvin    Cal/Mol-Kelvin
 Total                   63.832             20.530             78.426
 Electronic               0.000              0.000              0.000
 Translational            0.889              2.981             39.658
 Rotational               0.889              2.981             26.662
 Vibrational             62.055             14.568             12.106
 Vibration     1          0.594              1.983              5.533
 Vibration     2          0.649              1.804              1.925
 Vibration     3          0.715              1.609              1.245
 Vibration     4          0.777              1.441              0.914
 Vibration     5          0.937              1.075              0.485
 Vibration     6          0.941              1.066              0.478

 Optimization completed.
    -- Stationary point found.
 Normal termination of Gaussian 16 at Sat Jun 14 14:44:08 2025.
