 Gaussian 16, Revision B.01,
 Gaussian 16:  EM64L-G16RevB.01 20-Dec-2017

 -------------------------------------
 # opt freq hf/3-21g geom=connectivity
 -------------------------------------

 ------------
 Optimisation
 ------------
 Symbolic Z-matrix:
 Charge =  0 Multiplicity = 1

 SCF Done:  E(RHF) =  -419.954531077     A.U. after   14 cycles
 SCF Done:  E(RHF) =  -419.987325987     A.U. after   13 cycles
 SCF Done:  E(RHF) =  -419.998569919     A.U. after   14 cycles
 SCF Done:  E(RHF) =  -419.999472008     A.U. after   12 cycles
 SCF Done:  E(RHF) =  -419.999620961     A.U. after   12 cycles
 SCF Done:  E(RHF) =  -419.999679413     A.U. after   11 cycles
 SCF Done:  E(RHF) =  -419.999689047     A.U. after   11 cycles
 SCF Done:  E(RHF) =  -419.999693905     A.U. after   10 cycles
 SCF Done:  E(RHF) =  -419.999694738     A.U. after    9 cycles
 SCF Done:  E(RHF) =  -419.999694844     A.U. after    8 cycles
 SCF Done:  E(RHF) =  -419.999694921     A.U. after    8 cycles
 Optimization completed.
    -- Stationary point found.
 Normal termination of Gaussian 16 at Mon Jun  9 22:16:36 2025.

 --------------------------------------------------------------
 #N Geom=AllCheck Guess=TCheck SCRF=Check GenChk RHF/3-21G Freq
 --------------------------------------------------------------

 Structure from the checkpoint file:  "Meth_napthalene_isomer.chk"
 ------------
 Optimisation
 ------------
 Charge =  0 Multiplicity = 1

                         Standard orientation:
 ---------------------------------------------------------------------
 Center     Atomic      Atomic             Coordinates (Angstroms)
 Number     Number       Type             X           Y           Z
 ---------------------------------------------------------------------
      1          6           0        2.884061    0.407471   -0.191852
      2          6           0        1.804127    1.263365   -0.078061
      3          6           0        0.519214    0.764423    0.085624
      4          6           0        0.318844   -0.614731    0.143436
      5          6           0        1.403377   -1.463903    0.025137
      6          6           0        2.682747   -0.959632   -0.143731
      7          1           0       -0.442655    2.717732    0.216594
      8          1           0        3.871447    0.803937   -0.320735
      9          1           0        1.954504    2.324928   -0.123076
     10          6           0       -0.641760    1.664826    0.156718
     11          6           0       -1.077963   -1.156209    0.411407
     12          1           0        1.251154   -2.525488    0.066794
     13          1           0        3.513617   -1.630654   -0.235659
     14          6           0       -2.189577   -0.217854   -0.030340
     15          6           0       -1.887921    1.218224    0.083986
     16          1           0       -2.715030    1.901613    0.067990
     17          6           0       -3.367939   -0.655265   -0.440716
     18          1           0       -4.162051    0.022095   -0.693050
     19          1           0       -3.581646   -1.702320   -0.541672
     20          1           0       -1.199015   -2.125490   -0.055163
     21          1           0       -1.173575   -1.290654    1.488329
 ---------------------------------------------------------------------

 SCF Done:  E(RHF) =  -419.999694921     A.U. after    1 cycles

 The electronic state is 1-A.
 Alpha  occ. eigenvalues --  -11.19001 -11.18869 -11.18570 -11.18036 -11.17825
 Alpha  occ. eigenvalues --  -11.17736 -11.17714 -11.17621 -11.17434 -11.17381
 Alpha  occ. eigenvalues --  -11.15977  -1.17824  -1.11906  -1.05498  -1.03259
 Alpha  occ. eigenvalues --   -0.99538  -0.93279  -0.84524  -0.82436  -0.79674
 Alpha  occ. eigenvalues --   -0.71386  -0.69350  -0.67356  -0.62895  -0.61914
 Alpha  occ. eigenvalues --   -0.61198  -0.59192  -0.57397  -0.56607  -0.54715
 Alpha  occ. eigenvalues --   -0.51116  -0.50512  -0.48375  -0.46104  -0.43721
 Alpha  occ. eigenvalues --   -0.36581  -0.33459  -0.28524
 Alpha virt. eigenvalues --    0.09816   0.14934   0.18351   0.26326   0.27456
 Alpha virt. eigenvalues --    0.28650   0.29096   0.32750   0.33254   0.33856
 Alpha virt. eigenvalues --    0.35666   0.36243   0.37151   0.39339   0.42108

 Mulliken charges:
               1
     1  C   -0.239639
     2  C   -0.212241
     3  C   -0.091707
     4  C   -0.025167
     5  C   -0.228565
     6  C   -0.232261
     7  H    0.238186
     8  H    0.239162
     9  H    0.237554
    10  C   -0.187491
    11  C   -0.454720
    12  H    0.234849
    13  H    0.239661
    14  C   -0.046620
    15  C   -0.210858
    16  H    0.238265
    17  C   -0.408447
    18  H    0.210193
    19  H    0.209127
    20  H    0.232886
    21  H    0.257834
 Sum of Mulliken charges =  -0.00000

 Dipole moment (field-independent basis, Debye):
    X=              0.0726    Y=             -0.1410    Z=              0.1949  Tot=              0.2513
 Quadrupole moment (field-independent basis, Debye-Ang):
   XX=            -59.4124   YY=            -57.5025   ZZ=            -72.2734
   XY=              0.0512   XZ=             -0.4061   YZ=             -0.3041

  Exact polarizability: 164.907   8.198 104.189   4.447   1.647  35.904
 Approx polarizability: 133.901   7.537 103.821   1.840   1.876  35.274

                      1                      2                      3
                      A                      A                      A
 Frequencies --     70.4343               157.1694               240.0065
 Red. masses --      3.3173                 3.0534                 3.5366
 Frc consts  --      0.0097                 0.0444                 0.1200
 IR Inten    --      0.2382                 0.1040                 3.0523
 Raman Activ --      6.9935                 2.7965                 2.8486

                      4                      5                      6
                      A                      A                      A
 Frequencies --    327.2736               358.2222               440.2108
 Red. masses --      3.1290                 2.4937                 3.6199
 Frc consts  --      0.1975                 0.1885                 0.4133
 IR Inten    --      0.1098                 9.4586                 0.6385
 Raman Activ --      3.3158                 5.5162                 8.2463

                      7                      8                      9
                      A                      A                      A
 Frequencies --    461.0907               507.4611               563.9254
 Red. masses --      3.0529                 3.3541                 3.8376
 Frc consts  --      0.3824                 0.5089                 0.7190
 IR Inten    --      3.9152                10.2241                 3.4542
 Raman Activ --      5.1317                 7.4345                 5.8193

                     10                     11                     12
                      A                      A                      A
 Frequencies --    572.3184               624.8482               692.7221
 Red. masses --      4.0369                 2.3671                 4.4777
 Frc consts  --      0.7791                 0.5445                 1.2660
 IR Inten    --      1.9366                 4.8719                 5.9968
 Raman Activ --     11.8404                12.7776                10.5007

                     13                     14                     15
                      A                      A                      A
 Frequencies --    762.6910               791.5840               815.6338
 Red. masses --      1.6800                 3.5597                 3.2350
 Frc consts  --      0.5758                 1.3142                 1.2680
 IR Inten    --      2.6739                 2.3668                 2.7669
 Raman Activ --      5.2520                 6.4430                10.2027

                     16                     17                     18
                      A                      A                      A
 Frequencies --    844.0166               876.1292               904.6540
 Red. masses --      1.8973                 1.3746                 3.3568
 Frc consts  --      0.7963                 0.6217                 1.6186
 IR Inten    --     20.4505                23.3953                15.9137
 Raman Activ --      6.6276                 7.5776                 5.6796

                     19                     20                     21
                      A                      A                      A
 Frequencies --    934.0813               987.2062              1021.7595
 Red. masses --      1.5174                 2.8131                 1.6604
 Frc consts  --      0.7800                 1.6153                 1.0213
 IR Inten    --     49.7717                 0.3230                 3.6904
 Raman Activ --      7.1730                12.2848                 2.6518

                     22                     23                     24
                      A                      A                      A
 Frequencies --   1063.9452              1070.2834              1098.1299
 Red. masses --      1.6588                 1.9392                 1.5219
 Frc consts  --      1.1063                 1.3088                 1.0813
 IR Inten    --     12.7127                 5.7308                48.3809
 Raman Activ --      3.1379                 6.2619                11.3055

                     25                     26                     27
                      A                      A                      A
 Frequencies --   1128.6212              1136.0333              1157.4039
 Red. masses --      1.4899                 2.6173                 1.3518
 Frc consts  --      1.1182                 1.9901                 1.0669
 IR Inten    --     14.3093                 2.1671                 2.1332
 Raman Activ --      4.0607                28.4760                17.6984

                     28                     29                     30
                      A                      A                      A
 Frequencies --   1178.7024              1234.0946              1241.3360
 Red. masses --      1.4403                 2.1535                 3.3569
 Frc consts  --      1.1790                 1.9324                 3.0477
 IR Inten    --      0.0276                 2.9701                 1.0422
 Raman Activ --      3.1606                 2.0071                27.1430

                     31                     32                     33
                      A                      A                      A
 Frequencies --   1289.2876              1308.9700              1326.9936
 Red. masses --      1.9546                 2.7058                 1.5213
 Frc consts  --      1.9143                 2.7315                 1.5783
 IR Inten    --      0.2049                 0.1284                 1.8259
 Raman Activ --      6.7619                24.3271                11.9470

                     34                     35                     36
                      A                      A                      A
 Frequencies --   1362.7849              1371.5300              1420.7993
 Red. masses --      1.3600                 1.3350                 1.4466
 Frc consts  --      1.4882                 1.4796                 1.7205
 IR Inten    --      0.8191                 0.9074                 3.8783
 Raman Activ --    127.8759                17.6376                28.5196

                     37                     38                     39
                      A                      A                      A
 Frequencies --   1441.1007              1487.5939              1554.3209
 Red. masses --      1.7992                 1.4425                 1.4600
 Frc consts  --      2.2016                 1.8808                 2.0782
 IR Inten    --      1.8950                 0.9006                 1.6992
 Raman Activ --     47.2176                 9.7685                14.2644

                     40                     41                     42
                      A                      A                      A
 Frequencies --   1612.1665              1619.3234              1628.6329
 Red. masses --      1.2612                 1.3741                 1.4373
 Frc consts  --      1.9314                 2.1230                 2.2462
 IR Inten    --      5.0656                 1.2361                11.2096
 Raman Activ --     22.4873                 9.6777                18.3651

                     43                     44                     45
                      A                      A                      A
 Frequencies --   1658.7424              1739.4183              1770.8994
 Red. masses --      2.1270                 4.7779                 4.8244
 Frc consts  --      3.4481                 8.5172                 8.9143
 IR Inten    --     19.0215                 0.4646                 0.3225
 Raman Activ --     36.8499                95.9485                87.2756

                     46                     47                     48
                      A                      A                      A
 Frequencies --   1812.4540              1860.6534              3168.6799
 Red. masses --      5.0799                 5.4400                 1.0691
 Frc consts  --      9.8319                11.0964                 6.3245
 IR Inten    --      5.5087                14.5287                12.7293
 Raman Activ --    115.1616               525.8908               108.9913

                     49                     50                     51
                      A                      A                      A
 Frequencies --   3255.5907              3314.5049              3339.2055
 Red. masses --      1.0908                 1.0626                 1.0856
 Frc consts  --      6.8115                 6.8782                 7.1318
 IR Inten    --     10.4316                 8.9315                 0.0474
 Raman Activ --     39.1341                93.1432                29.4491

                     52                     53                     54
                      A                      A                      A
 Frequencies --   3342.9867              3348.3128              3363.1071
 Red. masses --      1.0873                 1.0894                 1.0934
 Frc consts  --      7.1593                 7.1957                 7.2863
 IR Inten    --      6.7584                 1.2327                 7.4003
 Raman Activ --      8.6195               112.4764               118.0869

                     55                     56                     57
                      A                      A                      A
 Frequencies --   3365.1601              3381.4954              3388.7946
 Red. masses --      1.0974                 1.0981                 1.1145
 Frc consts  --      7.3218                 7.3980                 7.5410
 IR Inten    --     37.9573                24.9632                14.4066
 Raman Activ --     89.5566               253.9417                95.3003

 - Thermochemistry -
 -------------------
 Temperature   298.150 Kelvin.  Pressure   1.00000 Atm.
 Atom     1 has atomic number  6 and mass  12.00000

 Molecular mass:   142.07825 amu.
 Principal axes and moments of inertia in atomic units:
                           1         2         3
     Eigenvalues --   667.117812112.369942714.48177
           X            0.99998   0.00613   0.00109
           Y           -0.00612   0.99998  -0.00296
           Z           -0.00111   0.00295   1.00000
 This molecule is an asymmetric top.
 Rotational symmetry number  1.
 Warning -- assumption of classical behavior for rotation
           may cause significant error
 Rotational temperatures (Kelvin)      0.12983     0.04100     0.03191
 Rotational constants (GHZ):           2.70528     0.85437     0.66486
 Zero-point vibrational energy     495227.0 (Joules/Mol)
                                  118.36211 (Kcal/Mol)
 Warning -- explicit consideration of  10 degrees of freedom as
           vibrations may cause significant error
 Vibrational temperatures:    101.34   226.13   345.32   470.87   515.40
          (Kelvin)            633.37   663.41   730.12   811.36   823.44
                              899.02   996.67  1097.34  1138.91  1173.52
                             1214.35  1260.55  1301.60  1343.93  1420.37
                             1470.08  1530.78  1539.90  1579.96  1623.83
                             1634.50  1665.25  1695.89  1775.59  1786.01
                             1855.00  1883.32  1909.25  1960.74  1973.33
                             2044.21  2073.42  2140.32  2236.32  2319.55
                             2329.85  2343.24  2386.56  2502.64  2547.93
                             2607.72  2677.07  4559.02  4684.07  4768.83
                             4804.37  4809.81  4817.48  4838.76  4841.71
                             4865.22  4875.72

 Zero-point correction=                           0.188622 (Hartree/Particle)
 Thermal correction to Energy=                    0.196308
 Thermal correction to Enthalpy=                  0.197252
 Thermal correction to Gibbs Free Energy=         0.155676
 Sum of electronic and zero-point Energies=           -419.811073
 Sum of electronic and thermal Energies=              -419.803387
 Sum of electronic and thermal Enthalpies=            -419.802443
 Sum of electronic and thermal Free Energies=         -419.844019

                     E (Thermal)             CV                S
                      KCal/Mol        Cal/Mol-Kelvin    Cal/Mol-Kelvin
 Total                  123.185             31.089             87.505
 Electronic               0.000              0.000              0.000
 Translational            0.889              2.981             40.765
 Rotational               0.889              2.981             29.727
 Vibrational            121.408             25.127             17.013
 Vibration     1          0.598              1.968              4.141
 Vibration     2          0.621              1.895              2.584
 Vibration     3          0.657              1.779              1.803
 Vibration     4          0.711              1.621              1.274
 Vibration     5          0.733              1.558              1.130
 Vibration     6          0.800              1.382              0.826
 Vibration     7          0.819              1.336              0.763
 Vibration     8          0.863              1.233              0.640
 Vibration     9          0.920              1.109              0.516
 Vibration    10          0.929              1.091              0.500

 Optimization completed.
    -- Stationary point found.
 Normal termination of Gaussian 16 at Mon Jun  9 22:16:49 2025.
