 Gaussian 16, Revision B.01,
 Gaussian 16:  EM64L-G16RevB.01 20-Dec-2017

 ----------------------------------------------
 # opt freq hf/3-21g pop=full geom=connectivity
 ----------------------------------------------

 -------------------
 Title Card Required
 -------------------
 Symbolic Z-matrix:
 Charge =  0 Multiplicity = 1

 SCF Done:  E(RHF) =  -1719.56460092     A.U. after   14 cycles
 SCF Done:  E(RHF) =  -1719.56461594     A.U. after    9 cycles
 SCF Done:  E(RHF) =  -1719.56461628     A.U. after    8 cycles
 SCF Done:  E(RHF) =  -1719.56461641     A.U. after    8 cycles
 SCF Done:  E(RHF) =  -1719.56461647     A.U. after    7 cycles
 SCF Done:  E(RHF) =  -1719.56461672     A.U. after    8 cycles
 SCF Done:  E(RHF) =  -1719.56461744     A.U. after   10 cycles
 SCF Done:  E(RHF) =  -1719.56462051     A.U. after   11 cycles
 SCF Done:  E(RHF) =  -1719.52605163     A.U. after   13 cycles
 SCF Done:  E(RHF) =  -1719.56464090     A.U. after   12 cycles
 SCF Done:  E(RHF) =  -1719.56471728     A.U. after   13 cycles
 SCF Done:  E(RHF) =  -1719.56478963     A.U. after   13 cycles
 SCF Done:  E(RHF) =  -1719.56476657     A.U. after   12 cycles
 SCF Done:  E(RHF) =  -1719.56479417     A.U. after   13 cycles
 SCF Done:  E(RHF) =  -1719.56479675     A.U. after   11 cycles
 SCF Done:  E(RHF) =  -1719.56479586     A.U. after   10 cycles
 SCF Done:  E(RHF) =  -1719.56480014     A.U. after   10 cycles
 SCF Done:  E(RHF) =  -1719.56480029     A.U. after    8 cycles
 SCF Done:  E(RHF) =  -1719.56480032     A.U. after    8 cycles
 Optimization completed.
    -- Stationary point found.
 Normal termination of Gaussian 16 at Mon Jun 16 23:25:55 2025.

 --------------------------------------------------------------
 #N Geom=AllCheck Guess=TCheck SCRF=Check GenChk RHF/3-21G Freq
 --------------------------------------------------------------

 Structure from the checkpoint file:  "35DMP_BCl3_adduct_opt.chk"
 -------------------
 Title Card Required
 -------------------
 Charge =  0 Multiplicity = 1

                         Standard orientation:
 ---------------------------------------------------------------------
 Center     Atomic      Atomic             Coordinates (Angstroms)
 Number     Number       Type             X           Y           Z
 ---------------------------------------------------------------------
      1          6           0       -0.834360    1.207501    0.000053
      2          6           0       -2.212907    1.210591   -0.000002
      3          6           0       -2.856970   -0.013944   -0.000123
      4          6           0       -2.140521   -1.204332   -0.000118
      5          6           0       -0.771105   -1.119761   -0.000041
      6          7           0       -0.135941    0.066533    0.000049
      7          1           0       -3.929899   -0.046111   -0.000234
      8          1           0       -0.270564    2.111029    0.000128
      9          1           0       -0.151170   -1.988071   -0.000091
     10          6           0       -2.986254    2.512521    0.000075
     11          1           0       -3.615781    2.580561    0.879839
     12          1           0       -2.315773    3.361759   -0.000216
     13          1           0       -3.616307    2.580377   -0.879321
     14          6           0       -2.840837   -2.546438    0.000145
     15          1           0       -3.462101   -2.650044    0.882343
     16          1           0       -3.469569   -2.646625   -0.877111
     17          1           0       -2.124515   -3.357176   -0.004486
     18          5           0        1.470357    0.030388    0.000002
     19         17           0        1.987795   -0.915042   -1.558400
     20         17           0        2.166243    1.781479    0.000453
     21         17           0        1.987916   -0.915860    1.557880
 ---------------------------------------------------------------------

 SCF Done:  E(RHF) =  -1719.56480032     A.U. after    1 cycles

 The electronic state is 1-A.
 Alpha  occ. eigenvalues -- -104.07253-104.06229-104.06210 -15.62593 -11.29353
 Alpha  occ. eigenvalues --  -11.29251 -11.26201 -11.25554 -11.25544 -11.21285
 Alpha  occ. eigenvalues --  -11.21190 -10.46672 -10.45724 -10.45663  -7.92983
 Alpha  occ. eigenvalues --   -7.92654  -7.92622  -7.92028  -7.92016  -7.91684
 Alpha  occ. eigenvalues --   -7.91683  -7.91676  -7.91660  -7.71391  -1.37727
 Alpha  occ. eigenvalues --   -1.18680  -1.14138  -1.10661  -1.05903  -1.04835
 Alpha  occ. eigenvalues --   -1.01740  -1.00747  -0.94028  -0.88284  -0.80763
 Alpha  occ. eigenvalues --   -0.76540  -0.72871  -0.66352  -0.65632  -0.65287
 Alpha  occ. eigenvalues --   -0.62132  -0.61643  -0.60853  -0.59958  -0.59139
 Alpha  occ. eigenvalues --   -0.55659  -0.54972  -0.52342  -0.52016  -0.45793
 Alpha  occ. eigenvalues --   -0.44920  -0.43785  -0.42911  -0.41597  -0.41359
 Alpha  occ. eigenvalues --   -0.40446  -0.39688
 Alpha virt. eigenvalues --    0.03294   0.09167   0.22548   0.23785   0.24291
 Alpha virt. eigenvalues --    0.24728   0.25643   0.26803   0.27688   0.28620
 Alpha virt. eigenvalues --    0.29230   0.31585   0.31704   0.32858   0.34326

 Mulliken charges:
               1
     1  C    0.274287
     2  C   -0.204578
     3  C   -0.098417
     4  C   -0.206610
     5  C    0.297443
     6  N   -0.956054
     7  H    0.281486
     8  H    0.356767
     9  H    0.346203
    10  C   -0.592068
    11  H    0.242376
    12  H    0.239243
    13  H    0.242363
    14  C   -0.591709
    15  H    0.242305
    16  H    0.242105
    17  H    0.240968
    18  B    0.351053
    19  Cl  -0.221634
    20  Cl  -0.263871
    21  Cl  -0.221660
 Sum of Mulliken charges =  -0.00000

 Dipole moment (field-independent basis, Debye):
    X=            -11.8898    Y=              0.2672    Z=              0.0007  Tot=             11.8928
 Quadrupole moment (field-independent basis, Debye-Ang):
   XX=            -93.0639   YY=            -87.4003   ZZ=           -104.4006
   XY=             -0.1883   XZ=             -0.0016   YZ=             -0.0004

  Exact polarizability: 114.172   0.213 119.458   0.000  -0.003  70.064
 Approx polarizability:  97.579   0.519 107.575   0.001  -0.001  62.961

                      1                      2                      3
                      A                      A                      A
 Frequencies --     17.1544                53.2330                63.0393
 Red. masses --      6.0690                 1.0214                 1.0548
 Frc consts  --      0.0011                 0.0017                 0.0025
 IR Inten    --      0.0121                 0.0403                 0.0454
 Raman Activ --      2.2431                 0.1129                 0.3085

                      4                      5                      6
                      A                      A                      A
 Frequencies --     92.0503               144.7899               198.2971
 Red. masses --      6.0843                 7.3971                10.6642
 Frc consts  --      0.0304                 0.0914                 0.2471
 IR Inten    --      0.2226                 2.2666                 4.1530
 Raman Activ --      4.3985                 0.5845                 3.3991

                      7                      8                      9
                      A                      A                      A
 Frequencies --    207.6318               220.3348               222.0602
 Red. masses --      4.8536                 6.3865                 5.1208
 Frc consts  --      0.1233                 0.1827                 0.1488
 IR Inten    --      0.2782                 8.8589                 3.0937
 Raman Activ --      1.9997                 2.3376                 1.8417

                     10                     11                     12
                      A                      A                      A
 Frequencies --    263.7622               296.6532               303.2867
 Red. masses --      2.8645                 7.2721                 8.2903
 Frc consts  --      0.1174                 0.3771                 0.4493
 IR Inten    --      0.0388                 1.9426                 0.3077
 Raman Activ --      2.5112                 2.9841                 2.2644

                     13                     14                     15
                      A                      A                      A
 Frequencies --    305.0901               374.3617               482.9939
 Red. masses --      4.1012                17.5603                 3.1128
 Frc consts  --      0.2249                 1.4500                 0.4278
 IR Inten    --      1.6076                 1.8352                16.3152
 Raman Activ --      2.5468                10.1142                 1.2899

                     16                     17                     18
                      A                      A                      A
 Frequencies --    574.3977               577.6100               586.9508
 Red. masses --      4.2586                 3.1745                 4.8243
 Frc consts  --      0.8278                 0.6240                 0.9792
 IR Inten    --     54.0513                13.2569                 6.3441
 Raman Activ --      2.0907                 1.2447                10.4460

                     19                     20                     21
                      A                      A                      A
 Frequencies --    595.1633               683.9798               717.0044
 Red. masses --      5.1967                 9.0086                 5.0412
 Frc consts  --      1.0845                 2.4831                 1.5269
 IR Inten    --      0.3968               169.8996               154.5250
 Raman Activ --      2.8226                 1.9153                 3.9130

                     22                     23                     24
                      A                      A                      A
 Frequencies --    767.8636               822.8129               960.3483
 Red. masses --      9.3552                 2.3175                 7.9908
 Frc consts  --      3.2499                 0.9244                 4.3421
 IR Inten    --    233.2047               199.5373               183.6525
 Raman Activ --      2.6589                 0.4363                15.0848

                     25                     26                     27
                      A                      A                      A
 Frequencies --   1030.2737              1064.5205              1109.4135
 Red. masses --      5.7137                 1.5196                 1.3452
 Frc consts  --      3.5733                 1.0146                 0.9755
 IR Inten    --      6.7100                 0.1893                 0.0004
 Raman Activ --      0.0362                 1.3923                 1.1055

                     28                     29                     30
                      A                      A                      A
 Frequencies --   1126.7691              1131.3544              1157.9395
 Red. masses --      1.7116                 1.6580                 1.3849
 Frc consts  --      1.2803                 1.2503                 1.0941
 IR Inten    --     16.1586                19.3374                 0.0444
 Raman Activ --      3.1991                 0.6166                 0.2508

                     31                     32                     33
                      A                      A                      A
 Frequencies --   1169.8149              1221.0263              1236.7245
 Red. masses --      5.3970                 1.5393                 1.6833
 Frc consts  --      4.3515                 1.3521                 1.5169
 IR Inten    --      1.0726                 0.4498                 9.6305
 Raman Activ --     29.8013                 0.1621                 0.1114

                     34                     35                     36
                      A                      A                      A
 Frequencies --   1248.5065              1290.4104              1316.1526
 Red. masses --      3.0687                 2.1200                 1.7807
 Frc consts  --      2.8183                 2.0799                 1.8174
 IR Inten    --     14.6931               158.2288                20.8983
 Raman Activ --      3.1638                 1.4871                 5.3963

                     37                     38                     39
                      A                      A                      A
 Frequencies --   1403.5179              1508.1783              1581.4236
 Red. masses --      4.7612                 1.2667                 1.4559
 Frc consts  --      5.5259                 1.6975                 2.1453
 IR Inten    --     12.7608                 5.4617                47.9734
 Raman Activ --      9.3732                 0.5759                 7.1952

                     40                     41                     42
                      A                      A                      A
 Frequencies --   1585.3884              1590.2462              1604.8990
 Red. masses --      1.8809                 1.2042                 1.8757
 Frc consts  --      2.7854                 1.7942                 2.8464
 IR Inten    --     10.5618                 0.0581                33.0547
 Raman Activ --      6.2421                14.7879                11.3176

                     43                     44                     45
                      A                      A                      A
 Frequencies --   1660.5660              1661.3426              1662.5368
 Red. masses --      1.0411                 1.0408                 1.0805
 Frc consts  --      1.6914                 1.6926                 1.7597
 IR Inten    --     15.6528                 7.9570                35.4180
 Raman Activ --     14.2914                29.5775                 5.0939

                     46                     47                     48
                      A                      A                      A
 Frequencies --   1671.2453              1762.4932              1788.3813
 Red. masses --      1.1462                 3.9543                 4.0033
 Frc consts  --      1.8863                 7.2374                 7.5437
 IR Inten    --     16.7230                 0.7647                42.8333
 Raman Activ --     21.7082                 7.4433                26.9282

                     49                     50                     51
                      A                      A                      A
 Frequencies --   3207.2351              3207.5943              3262.2481
 Red. masses --      1.0349                 1.0350                 1.1014
 Frc consts  --      6.2719                 6.2738                 6.9061
 IR Inten    --     14.4620                 8.4123                 0.9183
 Raman Activ --     31.7697               235.7665                42.5385

                     52                     53                     54
                      A                      A                      A
 Frequencies --   3262.3910              3282.5580              3284.2284
 Red. masses --      1.1014                 1.1004                 1.1003
 Frc consts  --      6.9067                 6.9862                 6.9926
 IR Inten    --     17.6095                 7.1099                 6.5421
 Raman Activ --    127.7469                53.2127                52.6458

                     55                     56                     57
                      A                      A                      A
 Frequencies --   3357.4662              3435.6122              3458.2508
 Red. masses --      1.0926                 1.0952                 1.0946
 Frc consts  --      7.2566                 7.6163                 7.7126
 IR Inten    --      2.4657                 5.9310                13.4008
 Raman Activ --     71.8625                36.0544                38.5383

 - Thermochemistry -
 -------------------
 Temperature   298.150 Kelvin.  Pressure   1.00000 Atm.
 Atom     1 has atomic number  6 and mass  12.00000

 Molecular mass:   222.98936 amu.
 Principal axes and moments of inertia in atomic units:
                           1         2         3
     Eigenvalues --  2222.847174073.035365060.90670
           X            1.00000  -0.00249  -0.00000
           Y            0.00249   1.00000  -0.00000
           Z            0.00000   0.00000   1.00000
 This molecule is an asymmetric top.
 Rotational symmetry number  1.
 Warning -- assumption of classical behavior for rotation
           may cause significant error
 Rotational temperatures (Kelvin)      0.03897     0.02127     0.01711
 Rotational constants (GHZ):           0.81191     0.44309     0.35660
 Zero-point vibrational energy     435868.8 (Joules/Mol)
                                  104.17515 (Kcal/Mol)
 Warning -- explicit consideration of  19 degrees of freedom as
           vibrations may cause significant error
 Vibrational temperatures:     24.68    76.59    90.70   132.44   208.32
          (Kelvin)            285.31   298.74   317.01   319.50   379.49
                              426.82   436.36   438.96   538.62   694.92
                              826.43   831.05   844.49   856.31   984.09
                             1031.61  1104.78  1183.84  1381.73  1482.33
                             1531.61  1596.20  1621.17  1627.77  1666.02
                             1683.10  1756.78  1779.37  1796.32  1856.61
                             1893.65  2019.35  2169.93  2275.32  2281.02
                             2288.01  2309.09  2389.18  2390.30  2392.02
                             2404.55  2535.83  2573.08  4614.50  4615.01
                             4693.65  4693.85  4722.87  4725.27  4830.64
                             4943.08  4975.65

 Zero-point correction=                           0.166014 (Hartree/Particle)
 Thermal correction to Energy=                    0.178631
 Thermal correction to Enthalpy=                  0.179576
 Thermal correction to Gibbs Free Energy=         0.124402
 Sum of electronic and zero-point Energies=          -1719.398787
 Sum of electronic and thermal Energies=             -1719.386169
 Sum of electronic and thermal Enthalpies=           -1719.385225
 Sum of electronic and thermal Free Energies=        -1719.440399

                     E (Thermal)             CV                S
                      KCal/Mol        Cal/Mol-Kelvin    Cal/Mol-Kelvin
 Total                  112.093             43.639            116.123
 Electronic               0.000              0.000              0.000
 Translational            0.889              2.981             42.108
 Rotational               0.889              2.981             32.194
 Vibrational            110.315             37.677             41.821
 Vibration     1          0.593              1.986              6.939
 Vibration     2          0.596              1.976              4.694
 Vibration     3          0.597              1.972              4.360
 Vibration     4          0.602              1.955              3.616
 Vibration     5          0.616              1.908              2.740
 Vibration     6          0.637              1.842              2.149
 Vibration     7          0.641              1.829              2.064
 Vibration     8          0.647              1.810              1.956
 Vibration     9          0.648              1.807              1.942
 Vibration    10          0.670              1.739              1.637
 Vibration    11          0.690              1.680              1.436
 Vibration    12          0.695              1.667              1.399
 Vibration    13          0.696              1.664              1.389
 Vibration    14          0.745              1.525              1.062
 Vibration    15          0.839              1.288              0.702
 Vibration    16          0.931              1.087              0.496
 Vibration    17          0.934              1.080              0.490
 Vibration    18          0.944              1.060              0.473
 Vibration    19          0.953              1.042              0.458

                           ! Non-Optimized Parameters !
 Normal termination of Gaussian 16 at Mon Jun 16 23:26:16 2025.
