 Gaussian 16, Revision B.01,
 Gaussian 16:  EM64L-G16RevB.01 20-Dec-2017

 -------------------------------------
 # opt freq hf/3-21g geom=connectivity
 -------------------------------------

 ------------
 Optimisation
 ------------
 Symbolic Z-matrix:
 Charge =  1 Multiplicity = 1

 SCF Done:  E(RHF) =  -306.085450669     A.U. after   18 cycles
 SCF Done:  E(RHF) =  -306.123572900     A.U. after   17 cycles
 SCF Done:  E(RHF) =  -306.163788835     A.U. after   17 cycles
 SCF Done:  E(RHF) =  -306.196928937     A.U. after   14 cycles
 SCF Done:  E(RHF) =  -306.216326621     A.U. after   15 cycles
 SCF Done:  E(RHF) =  -306.217969251     A.U. after   13 cycles
 SCF Done:  E(RHF) =  -306.218839198     A.U. after   12 cycles
 SCF Done:  E(RHF) =  -306.218965621     A.U. after   12 cycles
 SCF Done:  E(RHF) =  -306.218988194     A.U. after   11 cycles
 SCF Done:  E(RHF) =  -306.218991230     A.U. after   10 cycles
 SCF Done:  E(RHF) =  -306.219000721     A.U. after   12 cycles
 SCF Done:  E(RHF) =  -306.218957870     A.U. after   14 cycles
 SCF Done:  E(RHF) =  -306.210170947     A.U. after   15 cycles
 SCF Done:  E(RHF) =  -306.218983371     A.U. after   12 cycles
 SCF Done:  E(RHF) =  -306.219011280     A.U. after    9 cycles
 SCF Done:  E(RHF) =  -306.218998082     A.U. after   11 cycles
 SCF Done:  E(RHF) =  -306.219021145     A.U. after   11 cycles
 SCF Done:  E(RHF) =  -306.219025845     A.U. after   11 cycles
 SCF Done:  E(RHF) =  -306.219027456     A.U. after   10 cycles
 Optimization completed.
    -- Stationary point found.
 Normal termination of Gaussian 16 at Mon Jun  9 21:40:26 2025.

 --------------------------------------------------------------
 #N Geom=AllCheck Guess=TCheck SCRF=Check GenChk RHF/3-21G Freq
 --------------------------------------------------------------

 Structure from the checkpoint file:  "cation.chk"
 ------------
 Optimisation
 ------------
 Charge =  1 Multiplicity = 1

                         Standard orientation:
 ---------------------------------------------------------------------
 Center     Atomic      Atomic             Coordinates (Angstroms)
 Number     Number       Type             X           Y           Z
 ---------------------------------------------------------------------
      1          6           0        0.531176    1.230523   -0.000079
      2          6           0       -0.808895    1.546231    0.000144
      3          6           0       -1.911874    0.700262   -0.000103
      4          6           0        1.155959   -0.017133   -0.000664
      5          6           0       -1.924355   -0.675113    0.000153
      6          6           0        0.512088   -1.250805   -0.000251
      7          6           0       -0.837115   -1.539102    0.000183
      8          1           0        1.197670    2.072992   -0.000120
      9          1           0       -1.034469    2.595809    0.000280
     10          1           0       -2.870288    1.183086   -0.000412
     11          1           0       -2.891188   -1.140658    0.000386
     12          1           0        1.158226   -2.107322   -0.000510
     13          1           0       -1.081529   -2.584553    0.000191
     14          6           0        2.675504   -0.003333    0.000176
     15          1           0        3.042002    0.527668   -0.871483
     16          1           0        3.039780    0.506100    0.885770
     17          1           0        3.084874   -1.002307   -0.011451
 ---------------------------------------------------------------------

 SCF Done:  E(RHF) =  -306.219027456     A.U. after    1 cycles

 The electronic state is 1-A.
 Alpha  occ. eigenvalues --  -11.41935 -11.40512 -11.40393 -11.40188 -11.40018
 Alpha  occ. eigenvalues --  -11.39905 -11.39790 -11.32967  -1.36170  -1.28108
 Alpha  occ. eigenvalues --   -1.26553  -1.15618  -1.10725  -1.06050  -0.94209
 Alpha  occ. eigenvalues --   -0.93146  -0.90485  -0.83131  -0.80913  -0.76589
 Alpha  occ. eigenvalues --   -0.75173  -0.74445  -0.70299  -0.69685  -0.68720
 Alpha  occ. eigenvalues --   -0.68622  -0.57339  -0.55732
 Alpha virt. eigenvalues --   -0.14263  -0.13876   0.06392   0.11736   0.11905
 Alpha virt. eigenvalues --    0.12919   0.13564   0.16265   0.18074   0.21120
 Alpha virt. eigenvalues --    0.22265   0.22570   0.22956   0.25326   0.28261

 Mulliken charges:
               1
     1  C   -0.165404
     2  C   -0.186274
     3  C   -0.191565
     4  C   -0.057156
     5  C   -0.197068
     6  C   -0.175429
     7  C   -0.179396
     8  H    0.319003
     9  H    0.326426
    10  H    0.328032
    11  H    0.327592
    12  H    0.318552
    13  H    0.326960
    14  C   -0.608728
    15  H    0.276928
    16  H    0.277554
    17  H    0.259973
 Sum of Mulliken charges =   1.00000

 Dipole moment (field-independent basis, Debye):
    X=             -1.0171    Y=              0.0822    Z=              0.0029  Tot=              1.0205
 Quadrupole moment (field-independent basis, Debye-Ang):
   XX=            -25.4076   YY=            -30.5110   ZZ=            -50.3260
   XY=              0.2169   XZ=              0.0065   YZ=              0.0000

  Exact polarizability: 100.240   0.595  85.947   0.010   0.001  25.596
 Approx polarizability:  93.684   0.657  88.296   0.005   0.001  24.304

                      1                      2                      3
                      A                      A                      A
 Frequencies --     40.2230               148.0564               258.2714
 Red. masses --      1.0382                 3.0296                 2.9357
 Frc consts  --      0.0010                 0.0391                 0.1154
 IR Inten    --      0.9839                 0.2252                 0.0094
 Raman Activ --      0.3398                 2.7731                 0.0551

                      4                      5                      6
                      A                      A                      A
 Frequencies --    378.7479               381.5868               443.8915
 Red. masses --      2.7679                 2.7446                 5.8936
 Frc consts  --      0.2339                 0.2355                 0.6842
 IR Inten    --      0.0134                 7.0786                 0.0197
 Raman Activ --      0.2367                 0.7589                 5.3714

                      7                      8                      9
                      A                      A                      A
 Frequencies --    512.6668               636.2737               656.3106
 Red. masses --      6.1246                 2.5216                 2.0789
 Frc consts  --      0.9484                 0.6015                 0.5276
 IR Inten    --      0.0052                 0.2548                25.7200
 Raman Activ --      6.2731                 0.0203                 0.1344

                     10                     11                     12
                      A                      A                      A
 Frequencies --    728.8347               828.9360               943.6014
 Red. masses --      4.9605                 1.2358                 6.1276
 Frc consts  --      1.5525                 0.5003                 3.2146
 IR Inten    --      0.1163                95.0196                 0.3767
 Raman Activ --     18.5752                 0.4678                38.4285

                     13                     14                     15
                      A                      A                      A
 Frequencies --    984.9307               995.6172              1051.5536
 Red. masses --      5.5813                 1.2250                 3.2495
 Frc consts  --      3.1900                 0.7154                 2.1170
 IR Inten    --      0.6059                 0.1413                 6.5237
 Raman Activ --      0.1890                 5.5195                 5.1460

                     16                     17                     18
                      A                      A                      A
 Frequencies --   1062.4681              1089.5214              1197.8232
 Red. masses --      1.2754                 2.0413                 1.4003
 Frc consts  --      0.8483                 1.4277                 1.1838
 IR Inten    --      0.0526                 7.0774                 2.8087
 Raman Activ --      3.0754                 0.5592                 0.0884

                     19                     20                     21
                      A                      A                      A
 Frequencies --   1198.2293              1206.4204              1231.7993
 Red. masses --      1.6246                 1.4474                 4.2197
 Frc consts  --      1.3743                 1.2411                 3.7723
 IR Inten    --      2.4737                 7.4163                 6.4824
 Raman Activ --      0.6111                 0.0330                 4.1363

                     22                     23                     24
                      A                      A                      A
 Frequencies --   1233.5107              1246.5205              1387.4626
 Red. masses --      1.5432                 1.4700                 1.3819
 Frc consts  --      1.3834                 1.3457                 1.5673
 IR Inten    --      5.2602                 0.1128                 4.6855
 Raman Activ --      0.0843                 0.1290                 2.5662

                     25                     26                     27
                      A                      A                      A
 Frequencies --   1413.9349              1439.0503              1540.6726
 Red. masses --      1.3500                 1.3400                 2.3188
 Frc consts  --      1.5902                 1.6350                 3.2429
 IR Inten    --      0.0528                 9.4001                 3.7101
 Raman Activ --      1.2091                 1.8255                 2.8149

                     28                     29                     30
                      A                      A                      A
 Frequencies --   1582.8411              1605.3087              1612.8897
 Red. masses --      1.1777                 2.4985                 1.7382
 Frc consts  --      1.7385                 3.7936                 2.6641
 IR Inten    --     17.6720                18.6747                 4.4249
 Raman Activ --     19.4643                 4.6994                 1.6764

                     31                     32                     33
                      A                      A                      A
 Frequencies --   1649.9224              1650.6936              1662.5323
 Red. masses --      1.3088                 1.1001                 1.3379
 Frc consts  --      2.0992                 1.7661                 2.1788
 IR Inten    --     10.8312                16.8716                68.3226
 Raman Activ --     10.6609                19.5748                 4.6959

                     34                     35                     36
                      A                      A                      A
 Frequencies --   1686.8613              1746.7926              1783.7076
 Red. masses --      1.4469                 2.6184                 2.7865
 Frc consts  --      2.4258                 4.7073                 5.2235
 IR Inten    --     60.0451                 4.2707                 4.4344
 Raman Activ --      0.8441                23.4719                27.3179

                     37                     38                     39
                      A                      A                      A
 Frequencies --   3207.0886              3263.8999              3308.4025
 Red. masses --      1.0370                 1.1005                 1.0993
 Frc consts  --      6.2844                 6.9072                 7.0895
 IR Inten    --      0.9942                 0.1432                 4.8372
 Raman Activ --    170.3080                90.6823                42.2418

                     40                     41                     42
                      A                      A                      A
 Frequencies --   3341.5429              3347.2325              3353.7380
 Red. masses --      1.0887                 1.0890                 1.0895
 Frc consts  --      7.1623                 7.1885                 7.2200
 IR Inten    --      0.0401                 0.0520                 0.1018
 Raman Activ --     33.3699                15.6299                98.3854

                     43                     44                     45
                      A                      A                      A
 Frequencies --   3361.7649              3366.8271              3374.5295
 Red. masses --      1.0912                 1.0923                 1.0952
 Frc consts  --      7.2662                 7.2950                 7.3483
 IR Inten    --      0.6618                 1.5558                 1.0477
 Raman Activ --    103.8222                12.0787               266.8067

 - Thermochemistry -
 -------------------
 Temperature   298.150 Kelvin.  Pressure   1.00000 Atm.
 Atom     1 has atomic number  6 and mass  12.00000

 Molecular mass:   105.07043 amu.
 Principal axes and moments of inertia in atomic units:
                           1         2         3
     Eigenvalues --   477.01104 944.450291410.34607
           X            1.00000   0.00081   0.00002
           Y           -0.00081   1.00000   0.00000
           Z           -0.00002  -0.00000   1.00000
 This molecule is an asymmetric top.
 Rotational symmetry number  1.
 Warning -- assumption of classical behavior for rotation
           may cause significant error
 Rotational temperatures (Kelvin)      0.18158     0.09171     0.06141
 Rotational constants (GHZ):           3.78344     1.91089     1.27964
 Zero-point vibrational energy     413569.9 (Joules/Mol)
                                   98.84558 (Kcal/Mol)
 Warning -- explicit consideration of   7 degrees of freedom as
           vibrations may cause significant error
 Vibrational temperatures:     57.87   213.02   371.59   544.93   549.02
          (Kelvin)            638.66   737.61   915.46   944.28  1048.63
                             1192.65  1357.63  1417.10  1432.47  1512.95
                             1528.65  1567.58  1723.40  1723.98  1735.77
                             1772.28  1774.75  1793.46  1996.25  2034.34
                             2070.47  2216.68  2277.36  2309.68  2320.59
                             2373.87  2374.98  2392.01  2427.02  2513.24
                             2566.36  4614.29  4696.02  4760.05  4807.73
                             4815.92  4825.28  4836.83  4844.11  4855.20

 Zero-point correction=                           0.157520 (Hartree/Particle)
 Thermal correction to Energy=                    0.164266
 Thermal correction to Enthalpy=                  0.165210
 Thermal correction to Gibbs Free Energy=         0.125761
 Sum of electronic and zero-point Energies=           -306.061507
 Sum of electronic and thermal Energies=              -306.054761
 Sum of electronic and thermal Enthalpies=            -306.053817
 Sum of electronic and thermal Free Energies=         -306.093267

                     E (Thermal)             CV                S
                      KCal/Mol        Cal/Mol-Kelvin    Cal/Mol-Kelvin
 Total                  103.078             24.525             83.029
 Electronic               0.000              0.000              0.000
 Translational            0.889              2.981             39.865
 Rotational               0.889              2.981             27.943
 Vibrational            101.301             18.563             15.220
 Vibration     1          0.594              1.981              5.248
 Vibration     2          0.617              1.905              2.697
 Vibration     3          0.667              1.749              1.673
 Vibration     4          0.749              1.515              1.044
 Vibration     5          0.751              1.509              1.033
 Vibration     6          0.803              1.374              0.814
 Vibration     7          0.868              1.222              0.627

                           ! Non-Optimized Parameters !
 Normal termination of Gaussian 16 at Mon Jun  9 21:40:31 2025.
