 Gaussian 16, Revision B.01,
 Gaussian 16:  EM64L-G16RevB.01 20-Dec-2017

 --------------------------------------
 # uhf/3-21g pop=full geom=connectivity
 --------------------------------------

 -------------------
 Title Card Required
 -------------------
 Symbolic Z-matrix:
 Charge = -1 Multiplicity = 2

                         Standard orientation:
 ---------------------------------------------------------------------
 Center     Atomic      Atomic             Coordinates (Angstroms)
 Number     Number       Type             X           Y           Z
 ---------------------------------------------------------------------
      1          5           0        0.000000    0.000000    0.000000
      2          1           0        0.000000    1.219258    0.000000
      3          1           0       -1.055908   -0.609629    0.000000
      4          1           0        1.055908   -0.609629    0.000000
 ---------------------------------------------------------------------

 SCF Done:  E(UHF) =  -26.1855279984     A.U. after   11 cycles

 The electronic state is 2-A2".
 Alpha  occ. eigenvalues --   -7.22878  -0.42180  -0.18703  -0.18703   0.02324
 Alpha virt. eigenvalues --    0.57715   0.57753   0.57753   0.89926   0.89926
 Alpha virt. eigenvalues --    0.93731   1.07732   1.63476   1.70128   1.70128
  Beta  occ. eigenvalues --   -7.21587  -0.36116  -0.18472  -0.18472
  Beta virt. eigenvalues --    0.42410   0.58798   0.58798   0.62525   0.91564
  Beta virt. eigenvalues --    0.91564   1.04422   1.11275   1.63751   1.69631
  Beta virt. eigenvalues --    1.69631

 Mulliken charges and spin densities:
               1          2
     1  B   -0.501279   1.415394
     2  H   -0.166240  -0.138465
     3  H   -0.166240  -0.138465
     4  H   -0.166240  -0.138465
 Sum of Mulliken charges =  -1.00000   1.00000

 Dipole moment (field-independent basis, Debye):
    X=              0.0000    Y=             -0.0000    Z=             -0.0000  Tot=              0.0000
 Quadrupole moment (field-independent basis, Debye-Ang):
   XX=            -13.4695   YY=            -13.4695   ZZ=            -13.4193
   XY=              0.0000   XZ=              0.0000   YZ=             -0.0000

 Normal termination of Gaussian 16 at Fri Jun 13 21:03:54 2025.
