 Gaussian 16, Revision B.01,
 Gaussian 16:  EM64L-G16RevB.01 20-Dec-2017

 ----------------------------------------------
 # opt freq hf/3-21g pop=full geom=connectivity
 ----------------------------------------------

 -------------------
 Title Card Required
 -------------------
 Symbolic Z-matrix:
 Charge = -1 Multiplicity = 2

 SCF Done:  E(UHF) =  -26.1834881726     A.U. after   11 cycles
 SCF Done:  E(UHF) =  -26.1855250145     A.U. after   10 cycles
 SCF Done:  E(UHF) =  -26.1855279984     A.U. after    9 cycles
 Optimization completed.
    -- Stationary point found.
 Normal termination of Gaussian 16 at Fri Jun 13 21:02:26 2025.

 --------------------------------------------------------------
 #N Geom=AllCheck Guess=TCheck SCRF=Check GenChk UHF/3-21G Freq
 --------------------------------------------------------------

 Structure from the checkpoint file:  "BH3_ion_planr_sp.chk"
 -------------------
 Title Card Required
 -------------------
 Charge = -1 Multiplicity = 2

                         Standard orientation:
 ---------------------------------------------------------------------
 Center     Atomic      Atomic             Coordinates (Angstroms)
 Number     Number       Type             X           Y           Z
 ---------------------------------------------------------------------
      1          5           0        0.000000    0.000000    0.000000
      2          1           0        0.000000    1.219258    0.000000
      3          1           0        1.055908   -0.609629    0.000000
      4          1           0       -1.055908   -0.609629    0.000000
 ---------------------------------------------------------------------

 SCF Done:  E(UHF) =  -26.1855279984     A.U. after    1 cycles

 The electronic state is 2-A2".
 Alpha  occ. eigenvalues --   -7.22878  -0.42180  -0.18703  -0.18703   0.02324
 Alpha virt. eigenvalues --    0.57715   0.57753   0.57753   0.89926   0.89926
 Alpha virt. eigenvalues --    0.93731   1.07732   1.63476   1.70128   1.70128
  Beta  occ. eigenvalues --   -7.21587  -0.36116  -0.18472  -0.18472
  Beta virt. eigenvalues --    0.42410   0.58798   0.58798   0.62525   0.91564
  Beta virt. eigenvalues --    0.91564   1.04422   1.11275   1.63751   1.69631
  Beta virt. eigenvalues --    1.69631

 Mulliken charges and spin densities:
               1          2
     1  B   -0.501279   1.415394
     2  H   -0.166240  -0.138465
     3  H   -0.166240  -0.138465
     4  H   -0.166240  -0.138465
 Sum of Mulliken charges =  -1.00000   1.00000

 Dipole moment (field-independent basis, Debye):
    X=              0.0000    Y=             -0.0000    Z=              0.0000  Tot=              0.0000
 Quadrupole moment (field-independent basis, Debye-Ang):
   XX=            -13.4695   YY=            -13.4695   ZZ=            -13.4193
   XY=              0.0000   XZ=              0.0000   YZ=             -0.0000

  Exact polarizability:  17.259  -0.000  17.259  -0.000  -0.000  10.961
 Approx polarizability:  13.492  -0.000  13.492  -0.000  -0.000   7.852

 ******    1 imaginary frequencies (negative Signs) ******

                      1                      2                      3
                     A2"                    E'                     E'
 Frequencies --   -484.6417              1218.3538              1218.3538
 Red. masses --      1.2531                 1.1134                 1.1134
 Frc consts  --      0.1734                 0.9738                 0.9738
 IR Inten    --     40.4606                49.4335                49.4335
 Raman Activ --      0.0000                 8.2626                 8.2626

                      4                      5                      6
                     A1'                    E'                     E'
 Frequencies --   2462.1792              2527.0056              2527.0056
 Red. masses --      1.0078                 1.1209                 1.1209
 Frc consts  --      3.5998                 4.2173                 4.2173
 IR Inten    --      0.0000               382.4681               382.4680
 Raman Activ --    141.4616                38.5797                38.5797

 - Thermochemistry -
 -------------------
 Temperature   298.150 Kelvin.  Pressure   1.00000 Atm.
 Atom     1 has atomic number  5 and mass  11.00931

 Molecular mass:    14.03278 amu.
 Principal axes and moments of inertia in atomic units:
                           1         2         3
     Eigenvalues --     8.02537   8.02537  16.05075
           X           -0.47186   0.88167   0.00000
           Y            0.88167   0.47186   0.00000
           Z           -0.00000  -0.00000   1.00000
 This molecule is an oblate symmetric top.
 Rotational symmetry number  6.
 Rotational temperatures (Kelvin)     10.79251    10.79251     5.39625
 Rotational constants (GHZ):         224.87937   224.87937   112.43968
    1 imaginary frequencies ignored.
 Zero-point vibrational energy      59531.5 (Joules/Mol)
                                   14.22838 (Kcal/Mol)
 Vibrational temperatures:   1752.94  1752.94  3542.53  3635.80  3635.80
          (Kelvin)

 Zero-point correction=                           0.022674 (Hartree/Particle)
 Thermal correction to Energy=                    0.025538
 Thermal correction to Enthalpy=                  0.026482
 Thermal correction to Gibbs Free Energy=         0.004409
 Sum of electronic and zero-point Energies=            -26.162854
 Sum of electronic and thermal Energies=               -26.159990
 Sum of electronic and thermal Enthalpies=             -26.159046
 Sum of electronic and thermal Free Energies=          -26.181119

                     E (Thermal)             CV                S
                      KCal/Mol        Cal/Mol-Kelvin    Cal/Mol-Kelvin
 Total                   16.025              6.353             46.458
 Electronic               0.000              0.000              1.377
 Translational            0.889              2.981             33.864
 Rotational               0.889              2.981             11.139
 Vibrational             14.248              0.391              0.077

 Optimization completed.
    -- Stationary point found.
 Normal termination of Gaussian 16 at Fri Jun 13 21:02:27 2025.
