 Gaussian 16, Revision B.01,
 Gaussian 16:  EM64L-G16RevB.01 20-Dec-2017

 -------------------------------------
 # hf/3-21g pop=full geom=connectivity
 -------------------------------------

 -------------------
 Title Card Required
 -------------------
 Symbolic Z-matrix:
 Charge =  0 Multiplicity = 1

                         Standard orientation:
 ---------------------------------------------------------------------
 Center     Atomic      Atomic             Coordinates (Angstroms)
 Number     Number       Type             X           Y           Z
 ---------------------------------------------------------------------
      1          6           0       -1.164313    1.125940    0.000034
      2          6           0       -1.206318   -0.251970   -0.000021
      3          6           0       -0.000453   -0.930345   -0.000142
      4          6           0        1.209686   -0.247786   -0.000137
      5          6           0        1.163807    1.123471   -0.000060
      6          7           0       -0.004083    1.791871    0.000030
      7          1           0        0.001411   -2.003755   -0.000253
      8          1           0       -2.051565    1.715018    0.000109
      9          1           0        2.049272    1.718647   -0.000110
     10          6           0       -2.529561   -0.988256    0.000056
     11          1           0       -2.615346   -1.615611    0.879820
     12          1           0       -3.359533   -0.294067   -0.000235
     13          1           0       -2.615177   -1.616142   -0.879340
     14          6           0        2.531487   -0.985712    0.000126
     15          1           0        2.617512   -1.609653    0.882324
     16          1           0        2.613884   -1.617022   -0.877130
     17          1           0        3.362124   -0.292563   -0.004505
 ---------------------------------------------------------------------

 SCF Done:  E(RHF) =  -322.954272717     A.U. after   14 cycles

 The electronic state is 1-A.
 Alpha  occ. eigenvalues --  -15.48560 -11.20518 -11.20458 -11.19250 -11.19243
 Alpha  occ. eigenvalues --  -11.18756 -11.17099 -11.17090  -1.26158  -1.10457
 Alpha  occ. eigenvalues --   -1.07535  -0.95810  -0.95144  -0.85351  -0.80793
 Alpha  occ. eigenvalues --   -0.71150  -0.68362  -0.59848  -0.59824  -0.58423
 Alpha  occ. eigenvalues --   -0.58046  -0.57082  -0.55313  -0.54210  -0.51521
 Alpha  occ. eigenvalues --   -0.49792  -0.39034  -0.36500  -0.33812
 Alpha virt. eigenvalues --    0.12929   0.15243   0.27106   0.29083   0.31280
 Alpha virt. eigenvalues --    0.32001   0.32019   0.32156   0.35154   0.35983
 Alpha virt. eigenvalues --    0.36294   0.41856   0.44572   0.45460   0.47555

 Mulliken charges:
               1
     1  C    0.138642
     2  C   -0.170200
     3  C   -0.145072
     4  C   -0.168740
     5  C    0.132375
     6  N   -0.674715
     7  H    0.240788
     8  H    0.250786
     9  H    0.250395
    10  C   -0.594562
    11  H    0.224334
    12  H    0.218631
    13  H    0.224323
    14  C   -0.594382
    15  H    0.224329
    16  H    0.224190
    17  H    0.218877
 Sum of Mulliken charges =  -0.00000

 Dipole moment (field-independent basis, Debye):
    X=             -0.0036    Y=             -2.7524    Z=              0.0005  Tot=              2.7524
 Quadrupole moment (field-independent basis, Debye-Ang):
   XX=            -40.9253   YY=            -51.9799   ZZ=            -51.6775
   XY=             -0.0090   XZ=              0.0004   YZ=             -0.0002

 Normal termination of Gaussian 16 at Mon Jun 16 23:34:57 2025.
