 Gaussian 16, Revision B.01,
 Gaussian 16:  EM64L-G16RevB.01 20-Dec-2017

 -------------------------------------
 # hf/3-21g pop=full geom=connectivity
 -------------------------------------

 -------------------
 Title Card Required
 -------------------
 Symbolic Z-matrix:
 Charge =  0 Multiplicity = 1

                         Standard orientation:
 ---------------------------------------------------------------------
 Center     Atomic      Atomic             Coordinates (Angstroms)
 Number     Number       Type             X           Y           Z
 ---------------------------------------------------------------------
      1          6           0        0.834360    1.207501   -0.000053
      2          6           0        2.212907    1.210591    0.000002
      3          6           0        2.856970   -0.013944    0.000123
      4          6           0        2.140521   -1.204332    0.000118
      5          6           0        0.771105   -1.119761    0.000041
      6          7           0        0.135941    0.066533   -0.000049
      7          1           0        3.929899   -0.046110    0.000234
      8          1           0        0.270564    2.111029   -0.000128
      9          1           0        0.151170   -1.988071    0.000091
     10          6           0        2.986254    2.512521   -0.000075
     11          1           0        3.615781    2.580562   -0.879839
     12          1           0        2.315772    3.361759    0.000216
     13          1           0        3.616307    2.580378    0.879321
     14          6           0        2.840838   -2.546438   -0.000145
     15          1           0        3.462102   -2.650043   -0.882343
     16          1           0        3.469570   -2.646624    0.877111
     17          1           0        2.124516   -3.357176    0.004486
     18          5           0       -1.470357    0.030388   -0.000002
     19         17           0       -1.987795   -0.915042    1.558400
     20         17           0       -2.166243    1.781479   -0.000453
     21         17           0       -1.987916   -0.915860   -1.557880
 ---------------------------------------------------------------------

 SCF Done:  E(RHF) =  -1719.56480032     A.U. after   13 cycles

 The electronic state is 1-A.
 Alpha  occ. eigenvalues -- -104.07253-104.06229-104.06210 -15.62593 -11.29353
 Alpha  occ. eigenvalues --  -11.29251 -11.26201 -11.25554 -11.25544 -11.21285
 Alpha  occ. eigenvalues --  -11.21190 -10.46672 -10.45724 -10.45663  -7.92983
 Alpha  occ. eigenvalues --   -7.92654  -7.92622  -7.92028  -7.92016  -7.91684
 Alpha  occ. eigenvalues --   -7.91683  -7.91676  -7.91660  -7.71391  -1.37727
 Alpha  occ. eigenvalues --   -1.18680  -1.14138  -1.10661  -1.05903  -1.04835
 Alpha  occ. eigenvalues --   -1.01740  -1.00747  -0.94028  -0.88284  -0.80763
 Alpha  occ. eigenvalues --   -0.76540  -0.72871  -0.66352  -0.65632  -0.65287
 Alpha  occ. eigenvalues --   -0.62132  -0.61643  -0.60853  -0.59958  -0.59139
 Alpha  occ. eigenvalues --   -0.55659  -0.54972  -0.52342  -0.52016  -0.45793
 Alpha  occ. eigenvalues --   -0.44920  -0.43785  -0.42911  -0.41597  -0.41359
 Alpha  occ. eigenvalues --   -0.40446  -0.39688
 Alpha virt. eigenvalues --    0.03294   0.09167   0.22548   0.23785   0.24291
 Alpha virt. eigenvalues --    0.24728   0.25643   0.26803   0.27688   0.28620
 Alpha virt. eigenvalues --    0.29230   0.31585   0.31704   0.32858   0.34326

 Mulliken charges:
               1
     1  C    0.274288
     2  C   -0.204578
     3  C   -0.098417
     4  C   -0.206610
     5  C    0.297443
     6  N   -0.956054
     7  H    0.281486
     8  H    0.356767
     9  H    0.346203
    10  C   -0.592068
    11  H    0.242377
    12  H    0.239243
    13  H    0.242363
    14  C   -0.591709
    15  H    0.242305
    16  H    0.242104
    17  H    0.240968
    18  B    0.351052
    19  Cl  -0.221634
    20  Cl  -0.263871
    21  Cl  -0.221660
 Sum of Mulliken charges =  -0.00000

 Dipole moment (field-independent basis, Debye):
    X=             11.8898    Y=              0.2672    Z=             -0.0007  Tot=             11.8928
 Quadrupole moment (field-independent basis, Debye-Ang):
   XX=            -93.0640   YY=            -87.4003   ZZ=           -104.4006
   XY=              0.1883   XZ=             -0.0016   YZ=              0.0004

 Normal termination of Gaussian 16 at Mon Jun 16 23:27:51 2025.
