 Gaussian 16, Revision B.01,
 Gaussian 16:  EM64L-G16RevB.01 20-Dec-2017

 -------------------------------------
 # hf/3-21g pop=full geom=connectivity
 -------------------------------------

 -------------------
 Title Card Required
 -------------------
 Symbolic Z-matrix:
 Charge =  0 Multiplicity = 1

                         Standard orientation:
 ---------------------------------------------------------------------
 Center     Atomic      Atomic             Coordinates (Angstroms)
 Number     Number       Type             X           Y           Z
 ---------------------------------------------------------------------
      1          5           0       -0.008054   -0.000022    0.527115
      2         17           0        0.904037   -1.556806   -0.051425
      3         17           0       -1.801091   -0.002658   -0.052185
      4         17           0        0.899422    1.559471   -0.051424
 ---------------------------------------------------------------------

 SCF Done:  E(RHF) =  -1396.47938065     A.U. after   11 cycles

 The electronic state is 1-A.
 Alpha  occ. eigenvalues -- -104.14984-104.14812-104.14792 -10.54361 -10.54185
 Alpha  occ. eigenvalues --  -10.54115  -8.00654  -8.00461  -8.00447  -8.00293
 Alpha  occ. eigenvalues --   -8.00258  -8.00100  -8.00092  -8.00068  -8.00052
 Alpha  occ. eigenvalues --   -7.82026  -1.17857  -1.12308  -1.12084  -0.70644
 Alpha  occ. eigenvalues --   -0.59343  -0.59259  -0.55298  -0.50136  -0.50033
 Alpha  occ. eigenvalues --   -0.48272  -0.48167  -0.47353
 Alpha virt. eigenvalues --   -0.03982   0.16632   0.17699   0.18013   0.56301
 Alpha virt. eigenvalues --    0.56385   0.57087   0.64134   0.73096   0.73167
 Alpha virt. eigenvalues --    0.74883   0.74885   0.75524   0.81052   0.84339

 Mulliken charges:
               1
     1  B    0.316937
     2  Cl  -0.107373
     3  Cl  -0.102185
     4  Cl  -0.107378
 Sum of Mulliken charges =  -0.00000

 Dipole moment (field-independent basis, Debye):
    X=             -0.0718    Y=             -0.0002    Z=              1.8418  Tot=              1.8432
 Quadrupole moment (field-independent basis, Debye-Ang):
   XX=            -48.9635   YY=            -49.0484   ZZ=            -42.3770
   XY=              0.0001   XZ=             -0.0286   YZ=             -0.0001

 Normal termination of Gaussian 16 at Mon Jun 16 23:33:47 2025.
