 Gaussian 16, Revision B.01,
 Gaussian 16:  EM64L-G16RevB.01 20-Dec-2017

 -------------------------------------
 # opt freq hf/3-21g geom=connectivity
 -------------------------------------

 ------------
 Optimisation
 ------------
 Symbolic Z-matrix:
 Charge =  1 Multiplicity = 1

 SCF Done:  E(RHF) =  -306.087384946     A.U. after   17 cycles
 SCF Done:  E(RHF) =  -306.108873164     A.U. after   15 cycles
 SCF Done:  E(RHF) =  -306.127414529     A.U. after   15 cycles
 SCF Done:  E(RHF) =  -306.147170569     A.U. after   16 cycles
 SCF Done:  E(RHF) =  -306.158748689     A.U. after   14 cycles
 SCF Done:  E(RHF) =  -306.167345115     A.U. after   15 cycles
 SCF Done:  E(RHF) =  -306.168519283     A.U. after   14 cycles
 SCF Done:  E(RHF) =  -306.168841078     A.U. after   13 cycles
 SCF Done:  E(RHF) =  -306.168927497     A.U. after   12 cycles
 SCF Done:  E(RHF) =  -306.168970402     A.U. after   12 cycles
 SCF Done:  E(RHF) =  -306.168992102     A.U. after   12 cycles
 SCF Done:  E(RHF) =  -306.168992843     A.U. after   10 cycles
 Optimization completed.
    -- Stationary point found.
 Normal termination of Gaussian 16 at Mon Jun  9 21:45:23 2025.

 --------------------------------------------------------------
 #N Geom=AllCheck Guess=TCheck SCRF=Check GenChk RHF/3-21G Freq
 --------------------------------------------------------------

 Structure from the checkpoint file:  "cation_isomer.chk"
 ------------
 Optimisation
 ------------
 Charge =  1 Multiplicity = 1

                         Standard orientation:
 ---------------------------------------------------------------------
 Center     Atomic      Atomic             Coordinates (Angstroms)
 Number     Number       Type             X           Y           Z
 ---------------------------------------------------------------------
      1          6           0        0.550226    1.329347   -0.081587
      2          6           0       -0.798625    1.556307   -0.200479
      3          6           0       -1.799061    0.628433    0.060522
      4          6           0        1.220138    0.060581   -0.054567
      5          6           0       -1.713535   -0.750686    0.389227
      6          6           0        0.535350   -1.137709   -0.679341
      7          6           0       -0.675675   -1.553427    0.109004
      8          1           0        1.174447    2.198345    0.028606
      9          1           0       -1.114580    2.572422   -0.326200
     10          1           0       -2.790065    1.042035    0.118261
     11          1           0       -2.579077   -1.173754    0.859698
     12          1           0       -0.737501   -2.582385    0.409556
     13          6           0        2.453904    0.003904    0.457522
     14          1           0        2.965086    0.884062    0.798985
     15          1           0        2.985241   -0.922949    0.551458
     16          1           0        0.228596   -0.877852   -1.690322
     17          1           0        1.231519   -1.960424   -0.751838
 ---------------------------------------------------------------------

 SCF Done:  E(RHF) =  -306.168992843     A.U. after    1 cycles

 The electronic state is 1-A.
 Alpha  occ. eigenvalues --  -11.42795 -11.42723 -11.39989 -11.38990 -11.38259
 Alpha  occ. eigenvalues --  -11.36552 -11.35808 -11.35525  -1.34995  -1.27602
 Alpha  occ. eigenvalues --   -1.25131  -1.15288  -1.10340  -1.02807  -0.93038
 Alpha  occ. eigenvalues --   -0.91306  -0.88552  -0.82973  -0.81999  -0.79327
 Alpha  occ. eigenvalues --   -0.77019  -0.73671  -0.70927  -0.69776  -0.68184
 Alpha  occ. eigenvalues --   -0.64369  -0.57311  -0.51426
 Alpha virt. eigenvalues --   -0.18143  -0.04412   0.02997   0.07941   0.10639
 Alpha virt. eigenvalues --    0.12036   0.13282   0.16197   0.17768   0.18920
 Alpha virt. eigenvalues --    0.21945   0.22056   0.23143   0.26014   0.28086

 Mulliken charges:
               1
     1  C   -0.042592
     2  C   -0.323600
     3  C   -0.079961
     4  C   -0.142305
     5  C   -0.304875
     6  C   -0.528191
     7  C   -0.087661
     8  H    0.326995
     9  H    0.312999
    10  H    0.332301
    11  H    0.312588
    12  H    0.317893
    13  C   -0.274827
    14  H    0.290331
    15  H    0.295524
    16  H    0.307240
    17  H    0.288142
 Sum of Mulliken charges =   1.00000

 Dipole moment (field-independent basis, Debye):
    X=              0.6759    Y=              0.4146    Z=              0.5228  Tot=              0.9498
 Quadrupole moment (field-independent basis, Debye-Ang):
   XX=            -25.3146   YY=            -31.8422   ZZ=            -48.2050
   XY=             -0.5161   XZ=              0.8142   YZ=             -0.2541

  Exact polarizability: 118.888   0.062  83.985   5.965  -2.038  33.714
 Approx polarizability: 100.105  -4.926  75.578   4.667  -3.579  31.931

                      1                      2                      3
                      A                      A                      A
 Frequencies --    123.4253               183.2451               330.7682
 Red. masses --      3.2357                 2.3712                 3.0972
 Frc consts  --      0.0290                 0.0469                 0.1996
 IR Inten    --      2.3235                12.7840                 4.5524
 Raman Activ --     13.3329                 6.3666                 3.4473

                      4                      5                      6
                      A                      A                      A
 Frequencies --    387.9470               427.7366               449.5482
 Red. masses --      2.9515                 3.2408                 3.1312
 Frc consts  --      0.2617                 0.3494                 0.3728
 IR Inten    --     13.2914                 6.5116                 4.7837
 Raman Activ --      7.5070                 4.7127                 5.8615

                      7                      8                      9
                      A                      A                      A
 Frequencies --    532.1698               592.3108               727.5344
 Red. masses --      2.5524                 2.4250                 1.1774
 Frc consts  --      0.4259                 0.5013                 0.3672
 IR Inten    --      9.1410                65.8821                52.6693
 Raman Activ --      7.4439                 3.4034                 3.2567

                     10                     11                     12
                      A                      A                      A
 Frequencies --    735.8697               802.1969               892.1242
 Red. masses --      2.7450                 1.6240                 1.6575
 Frc consts  --      0.8758                 0.6158                 0.7772
 IR Inten    --     18.7002                31.6542                38.9855
 Raman Activ --     15.6791                 8.1371                11.5952

                     13                     14                     15
                      A                      A                      A
 Frequencies --    959.2397               963.0621               990.7717
 Red. masses --      2.5665                 3.3179                 2.1958
 Frc consts  --      1.3914                 1.8131                 1.2700
 IR Inten    --     68.9862                 8.7455                45.3981
 Raman Activ --     18.8535                 5.5291                14.6462

                     16                     17                     18
                      A                      A                      A
 Frequencies --   1026.3220              1078.7745              1110.2347
 Red. masses --      2.9275                 1.9395                 1.7467
 Frc consts  --      1.8168                 1.3298                 1.2685
 IR Inten    --      9.3211                53.0023                 8.8864
 Raman Activ --     13.3814                27.9251                 5.5497

                     19                     20                     21
                      A                      A                      A
 Frequencies --   1145.6419              1189.5286              1206.1787
 Red. masses --      1.5003                 1.4342                 1.4980
 Frc consts  --      1.1602                 1.1957                 1.2840
 IR Inten    --     92.2531                21.2796                37.1149
 Raman Activ --      4.1941                 2.9251                11.2832

                     22                     23                     24
                      A                      A                      A
 Frequencies --   1220.0352              1269.4256              1354.5607
 Red. masses --      1.4130                 1.6848                 1.4051
 Frc consts  --      1.2392                 1.5996                 1.5190
 IR Inten    --     25.2198                10.4265                70.9969
 Raman Activ --     16.4041                16.0635                22.8491

                     25                     26                     27
                      A                      A                      A
 Frequencies --   1383.1767              1406.5406              1469.8886
 Red. masses --      1.2585                 1.2084                 1.9901
 Frc consts  --      1.4186                 1.4085                 2.5333
 IR Inten    --    196.8470               150.3055               164.2528
 Raman Activ --     22.5687                21.7732                58.7513

                     28                     29                     30
                      A                      A                      A
 Frequencies --   1500.4472              1534.2362              1581.6891
 Red. masses --      1.4095                 2.2075                 1.5450
 Frc consts  --      1.8697                 3.0614                 2.2772
 IR Inten    --     29.2085               559.5967               111.8041
 Raman Activ --      1.5480                26.2552                58.3815

                     31                     32                     33
                      A                      A                      A
 Frequencies --   1591.3922              1630.5887              1649.7876
 Red. masses --      1.3718                 1.0991                 1.3871
 Frc consts  --      2.0469                 1.7217                 2.2244
 IR Inten    --     20.7188                21.6393                20.3090
 Raman Activ --      9.9719                14.1085                39.9411

                     34                     35                     36
                      A                      A                      A
 Frequencies --   1695.1619              1773.1011              1778.1180
 Red. masses --      2.0180                 3.3488                 3.3908
 Frc consts  --      3.4166                 6.2031                 6.3165
 IR Inten    --     81.6469                25.4022               246.6665
 Raman Activ --     28.7065               124.9639               159.4112

                     37                     38                     39
                      A                      A                      A
 Frequencies --   3195.5809              3293.2914              3328.1800
 Red. masses --      1.0689                 1.0932                 1.0649
 Frc consts  --      6.4314                 6.9860                 6.9497
 IR Inten    --      1.2585                 1.7343                 0.2817
 Raman Activ --     86.5536                41.6571                56.1490

                     40                     41                     42
                      A                      A                      A
 Frequencies --   3337.3864              3339.6240              3356.2628
 Red. masses --      1.0879                 1.0892                 1.0882
 Frc consts  --      7.1394                 7.1570                 7.2222
 IR Inten    --      0.4060                 0.6451                 0.8723
 Raman Activ --     73.0186                71.9155                71.5916

                     43                     44                     45
                      A                      A                      A
 Frequencies --   3375.8388              3380.1241              3418.0548
 Red. masses --      1.0943                 1.0936                 1.1173
 Frc consts  --      7.3479                 7.3615                 7.6910
 IR Inten    --      0.3657                 1.2699                 1.3224
 Raman Activ --     92.7782               224.3149                76.9834

 - Thermochemistry -
 -------------------
 Temperature   298.150 Kelvin.  Pressure   1.00000 Atm.
 Atom     1 has atomic number  6 and mass  12.00000

 Molecular mass:   105.07043 amu.
 Principal axes and moments of inertia in atomic units:
                           1         2         3
     Eigenvalues --   533.57361 848.646921267.33472
           X            0.99993  -0.01149   0.00119
           Y            0.01148   0.99993   0.00367
           Z           -0.00124  -0.00366   0.99999
 This molecule is an asymmetric top.
 Rotational symmetry number  1.
 Warning -- assumption of classical behavior for rotation
           may cause significant error
 Rotational temperatures (Kelvin)      0.16233     0.10206     0.06834
 Rotational constants (GHZ):           3.38237     2.12661     1.42404
 Zero-point vibrational energy     411019.7 (Joules/Mol)
                                   98.23606 (Kcal/Mol)
 Warning -- explicit consideration of   8 degrees of freedom as
           vibrations may cause significant error
 Vibrational temperatures:    177.58   263.65   475.90   558.17   615.42
          (Kelvin)            646.80   765.67   852.20  1046.76  1058.75
                             1154.18  1283.57  1380.13  1385.63  1425.50
                             1476.65  1552.12  1597.38  1648.32  1711.47
                             1735.42  1755.36  1826.42  1948.91  1990.08
                             2023.70  2114.84  2158.81  2207.42  2275.70
                             2289.66  2346.05  2373.68  2438.96  2551.10
                             2558.32  4597.73  4738.31  4788.51  4801.75
                             4804.97  4828.91  4857.08  4863.24  4917.82

 Zero-point correction=                           0.156549 (Hartree/Particle)
 Thermal correction to Energy=                    0.162959
 Thermal correction to Enthalpy=                  0.163903
 Thermal correction to Gibbs Free Energy=         0.125997
 Sum of electronic and zero-point Energies=           -306.012444
 Sum of electronic and thermal Energies=              -306.006034
 Sum of electronic and thermal Enthalpies=            -306.005089
 Sum of electronic and thermal Free Energies=         -306.042995

                     E (Thermal)             CV                S
                      KCal/Mol        Cal/Mol-Kelvin    Cal/Mol-Kelvin
 Total                  102.258             24.580             79.780
 Electronic               0.000              0.000              0.000
 Translational            0.889              2.981             39.865
 Rotational               0.889              2.981             27.842
 Vibrational            100.481             18.618             12.073
 Vibration     1          0.610              1.929              3.046
 Vibration     2          0.631              1.863              2.295
 Vibration     3          0.713              1.614              1.256
 Vibration     4          0.756              1.496              1.008
 Vibration     5          0.789              1.410              0.866
 Vibration     6          0.808              1.362              0.797
 Vibration     7          0.887              1.179              0.582
 Vibration     8          0.950              1.048              0.463

                           ! Non-Optimized Parameters !
 Normal termination of Gaussian 16 at Mon Jun  9 21:45:28 2025.
