 Gaussian 16, Revision B.01,
 Gaussian 16:  EM64L-G16RevB.01 20-Dec-2017

 ----------------------------------------------
 # opt freq hf/3-21g pop=full geom=connectivity
 ----------------------------------------------

 -------
 PH3 opt
 -------
 Symbolic Z-matrix:
 Charge =  0 Multiplicity = 1

 SCF Done:  E(RHF) =  -340.685775801     A.U. after    9 cycles
 SCF Done:  E(RHF) =  -340.702790910     A.U. after   10 cycles
 SCF Done:  E(RHF) =  -340.704501273     A.U. after    9 cycles
 SCF Done:  E(RHF) =  -340.704519276     A.U. after    7 cycles
 Optimization completed.
    -- Stationary point found.
 Normal termination of Gaussian 16 at Mon Jun 16 16:20:09 2025.

 --------------------------------------------------------------
 #N Geom=AllCheck Guess=TCheck SCRF=Check GenChk RHF/3-21G Freq
 --------------------------------------------------------------

 Structure from the checkpoint file:  "PH3_opt.chk"
 -------
 PH3 opt
 -------
 Charge =  0 Multiplicity = 1

                         Standard orientation:
 ---------------------------------------------------------------------
 Center     Atomic      Atomic             Coordinates (Angstroms)
 Number     Number       Type             X           Y           Z
 ---------------------------------------------------------------------
      1         15           0        0.000000    0.000000    0.121519
      2          1           0        0.000000    1.221547   -0.607595
      3          1           0       -1.057891   -0.610774   -0.607595
      4          1           0        1.057891   -0.610774   -0.607595
 ---------------------------------------------------------------------

 SCF Done:  E(RHF) =  -340.704519276     A.U. after    1 cycles

 The electronic state is 1-A1.
 Alpha  occ. eigenvalues --  -79.38629  -7.46103  -5.34525  -5.34525  -5.34249
 Alpha  occ. eigenvalues --   -0.87579  -0.52734  -0.52734  -0.38055
 Alpha virt. eigenvalues --    0.18103   0.18103   0.26458   0.60381   0.60381
 Alpha virt. eigenvalues --    0.63275   0.70958   1.20672   1.26127   1.26127

 Mulliken charges:
               1
     1  P    0.089077
     2  H   -0.029692
     3  H   -0.029692
     4  H   -0.029692
 Sum of Mulliken charges =  -0.00000

 Dipole moment (field-independent basis, Debye):
    X=             -0.0000    Y=              0.0000    Z=             -1.2424  Tot=              1.2424
 Quadrupole moment (field-independent basis, Debye-Ang):
   XX=            -15.3439   YY=            -15.3439   ZZ=            -18.0946
   XY=              0.0000   XZ=              0.0000   YZ=              0.0000

  Exact polarizability:  22.339   0.000  22.339   0.000   0.000  14.948
 Approx polarizability:  17.899   0.000  17.899   0.000   0.000  11.715

                      1                      2                      3
                     A1                      E                      E
 Frequencies --   1092.6444              1269.1192              1269.1192
 Red. masses --      1.0814                 1.0283                 1.0283
 Frc consts  --      0.7607                 0.9759                 0.9759
 IR Inten    --     34.6268                27.2660                27.2660
 Raman Activ --     63.9944                86.7402                86.7402

                      4                      5                      6
                      E                      E                     A1
 Frequencies --   2397.9586              2397.9586              2409.4744
 Red. masses --      1.0414                 1.0414                 1.0263
 Frc consts  --      3.5281                 3.5281                 3.5104
 IR Inten    --    111.4087               111.4087                35.1961
 Raman Activ --    154.9352               154.9352               246.6993

 - Thermochemistry -
 -------------------
 Temperature   298.150 Kelvin.  Pressure   1.00000 Atm.
 Atom     1 has atomic number 15 and mass  30.97376

 Molecular mass:    33.99724 amu.
 Principal axes and moments of inertia in atomic units:
                           1         2         3
     Eigenvalues --    13.28486  13.28486  16.11108
           X            0.99504   0.09950  -0.00000
           Y           -0.09950   0.99504   0.00000
           Z            0.00000   0.00000   1.00000
 This molecule is an oblate symmetric top.
 Rotational symmetry number  3.
 Rotational temperatures (Kelvin)      6.51975     6.51975     5.37605
 Rotational constants (GHZ):         135.84947   135.84947   112.01864
 Zero-point vibrational energy      64815.3 (Joules/Mol)
                                   15.49123 (Kcal/Mol)
 Vibrational temperatures:   1572.07  1825.98  1825.98  3450.13  3450.13
          (Kelvin)           3466.70

 Zero-point correction=                           0.024687 (Hartree/Particle)
 Thermal correction to Energy=                    0.027571
 Thermal correction to Enthalpy=                  0.028515
 Thermal correction to Gibbs Free Energy=         0.004687
 Sum of electronic and zero-point Energies=           -340.679832
 Sum of electronic and thermal Energies=              -340.676949
 Sum of electronic and thermal Enthalpies=            -340.676004
 Sum of electronic and thermal Free Energies=         -340.699833

                     E (Thermal)             CV                S
                      KCal/Mol        Cal/Mol-Kelvin    Cal/Mol-Kelvin
 Total                   17.301              6.583             50.151
 Electronic               0.000              0.000              0.000
 Translational            0.889              2.981             36.502
 Rotational               0.889              2.981             13.522
 Vibrational             15.523              0.621              0.127

 Optimization completed.
    -- Stationary point found.
 Normal termination of Gaussian 16 at Mon Jun 16 16:20:10 2025.
