 Gaussian 16, Revision B.01,
 Gaussian 16:  EM64L-G16RevB.01 20-Dec-2017

 -------------------------------------
 # hf/3-21g pop=full geom=connectivity
 -------------------------------------

 ------
 PH3 sp
 ------
 Symbolic Z-matrix:
 Charge =  0 Multiplicity = 1

                         Standard orientation:
 ---------------------------------------------------------------------
 Center     Atomic      Atomic             Coordinates (Angstroms)
 Number     Number       Type             X           Y           Z
 ---------------------------------------------------------------------
      1         15           0       -0.000000   -0.000000    0.121519
      2          1           0        0.000000    1.221547   -0.607595
      3          1           0       -1.057891   -0.610774   -0.607595
      4          1           0        1.057891   -0.610774   -0.607595
 ---------------------------------------------------------------------

 SCF Done:  E(RHF) =  -340.704519276     A.U. after    9 cycles

 The electronic state is 1-A.
 Alpha  occ. eigenvalues --  -79.38629  -7.46103  -5.34525  -5.34525  -5.34249
 Alpha  occ. eigenvalues --   -0.87579  -0.52734  -0.52734  -0.38055
 Alpha virt. eigenvalues --    0.18103   0.18103   0.26458   0.60381   0.60381
 Alpha virt. eigenvalues --    0.63275   0.70958   1.20672   1.26127   1.26127

 Mulliken charges:
               1
     1  P    0.089077
     2  H   -0.029692
     3  H   -0.029692
     4  H   -0.029692
 Sum of Mulliken charges =   0.00000

 Dipole moment (field-independent basis, Debye):
    X=             -0.0000    Y=              0.0000    Z=             -1.2424  Tot=              1.2424
 Quadrupole moment (field-independent basis, Debye-Ang):
   XX=            -15.3439   YY=            -15.3439   ZZ=            -18.0946
   XY=             -0.0000   XZ=             -0.0000   YZ=             -0.0000

 Normal termination of Gaussian 16 at Mon Jun 16 16:20:37 2025.
