 Gaussian 16, Revision B.01,
 Gaussian 16:  EM64L-G16RevB.01 20-Dec-2017

 -------------------------------------
 # hf/3-21g pop=full geom=connectivity
 -------------------------------------

 -------
 PH4+ sp
 -------
 Symbolic Z-matrix:
 Charge =  1 Multiplicity = 1

                         Standard orientation:
 ---------------------------------------------------------------------
 Center     Atomic      Atomic             Coordinates (Angstroms)
 Number     Number       Type             X           Y           Z
 ---------------------------------------------------------------------
      1         15           0        0.000000    0.000000    0.000000
      2          1           0        0.803603    0.803603    0.803603
      3          1           0       -0.803603   -0.803603    0.803603
      4          1           0       -0.803603    0.803603   -0.803603
      5          1           0        0.803603   -0.803603   -0.803603
 ---------------------------------------------------------------------

 SCF Done:  E(RHF) =  -340.998171082     A.U. after    8 cycles

 The electronic state is 1-A1.
 Alpha  occ. eigenvalues --  -79.70007  -7.78275  -5.66816  -5.66816  -5.66816
 Alpha  occ. eigenvalues --   -1.19666  -0.83741  -0.83741  -0.83741
 Alpha virt. eigenvalues --   -0.06450  -0.06450  -0.06450  -0.01033   0.31492
 Alpha virt. eigenvalues --    0.31492   0.31492   0.41690   0.91346   1.02002
 Alpha virt. eigenvalues --    1.02002   1.02002

 Mulliken charges:
               1
     1  P    0.507386
     2  H    0.123154
     3  H    0.123154
     4  H    0.123154
     5  H    0.123154
 Sum of Mulliken charges =   1.00000

 Dipole moment (field-independent basis, Debye):
    X=              0.0000    Y=              0.0000    Z=             -0.0000  Tot=              0.0000
 Quadrupole moment (field-independent basis, Debye-Ang):
   XX=            -11.9111   YY=            -11.9111   ZZ=            -11.9111
   XY=             -0.0000   XZ=              0.0000   YZ=              0.0000

 Normal termination of Gaussian 16 at Mon Jun 16 16:26:06 2025.
