 Gaussian 16, Revision B.01,
 Gaussian 16:  EM64L-G16RevB.01 20-Dec-2017

 ----------------------------------------------
 # opt freq hf/3-21g pop=full geom=connectivity
 ----------------------------------------------

 --------
 PH4+ opt
 --------
 Symbolic Z-matrix:
 Charge =  1 Multiplicity = 1

 SCF Done:  E(RHF) =  -340.994802300     A.U. after    8 cycles
 SCF Done:  E(RHF) =  -340.998160800     A.U. after    8 cycles
 SCF Done:  E(RHF) =  -340.998171082     A.U. after    7 cycles
 Optimization completed.
    -- Stationary point found.
 Normal termination of Gaussian 16 at Mon Jun 16 16:25:30 2025.

 --------------------------------------------------------------
 #N Geom=AllCheck Guess=TCheck SCRF=Check GenChk RHF/3-21G Freq
 --------------------------------------------------------------

 Structure from the checkpoint file:  "PH4_ion_opt.chk"
 --------
 PH4+ opt
 --------
 Charge =  1 Multiplicity = 1

                         Standard orientation:
 ---------------------------------------------------------------------
 Center     Atomic      Atomic             Coordinates (Angstroms)
 Number     Number       Type             X           Y           Z
 ---------------------------------------------------------------------
      1         15           0        0.000000    0.000000    0.000000
      2          1           0        0.803603    0.803603    0.803603
      3          1           0       -0.803603    0.803603   -0.803603
      4          1           0        0.803603   -0.803603   -0.803603
      5          1           0       -0.803603   -0.803603    0.803603
 ---------------------------------------------------------------------

 SCF Done:  E(RHF) =  -340.998171082     A.U. after    1 cycles

 The electronic state is 1-A1.
 Alpha  occ. eigenvalues --  -79.70007  -7.78275  -5.66816  -5.66816  -5.66816
 Alpha  occ. eigenvalues --   -1.19666  -0.83741  -0.83741  -0.83741
 Alpha virt. eigenvalues --   -0.06450  -0.06450  -0.06450  -0.01033   0.31492
 Alpha virt. eigenvalues --    0.31492   0.31492   0.41690   0.91346   1.02002
 Alpha virt. eigenvalues --    1.02002   1.02002

 Mulliken charges:
               1
     1  P    0.507386
     2  H    0.123154
     3  H    0.123154
     4  H    0.123154
     5  H    0.123154
 Sum of Mulliken charges =   1.00000

 Dipole moment (field-independent basis, Debye):
    X=             -0.0000    Y=             -0.0000    Z=              0.0000  Tot=              0.0000
 Quadrupole moment (field-independent basis, Debye-Ang):
   XX=            -11.9111   YY=            -11.9111   ZZ=            -11.9111
   XY=              0.0000   XZ=             -0.0000   YZ=             -0.0000

  Exact polarizability:  17.676   0.000  17.676  -0.000   0.000  17.676
 Approx polarizability:  14.647   0.000  14.647  -0.000  -0.000  14.647

                      1                      2                      3
                     T2                     T2                     T2
 Frequencies --   1040.1654              1040.1654              1040.1654
 Red. masses --      1.0881                 1.0881                 1.0881
 Frc consts  --      0.6936                 0.6936                 0.6936
 IR Inten    --      7.0666                 7.0666                 7.0666
 Raman Activ --     10.3544                10.3544                10.3544

                      4                      5                      6
                      E                      E                     A1
 Frequencies --   1241.8515              1241.8515              2558.4919
 Red. masses --      1.0078                 1.0078                 1.0078
 Frc consts  --      0.9157                 0.9157                 3.8869
 IR Inten    --      0.0000                 0.0000                 0.0000
 Raman Activ --     60.4252                60.4252               255.3850

                      7                      8                      9
                     T2                     T2                     T2
 Frequencies --   2603.7157              2603.7157              2603.7157
 Red. masses --      1.0473                 1.0473                 1.0473
 Frc consts  --      4.1831                 4.1831                 4.1831
 IR Inten    --     32.1605                32.1605                32.1605
 Raman Activ --     69.9067                69.9067                69.9067

 - Thermochemistry -
 -------------------
 Temperature   298.150 Kelvin.  Pressure   1.00000 Atm.
 Atom     1 has atomic number 15 and mass  30.97376

 Molecular mass:    35.00506 amu.
 Principal axes and moments of inertia in atomic units:
                           1         2         3
     Eigenvalues --    18.59327  18.59327  18.59327
           X            0.83019   0.53436  -0.15886
           Y            0.10370   0.13197   0.98581
           Z           -0.54775   0.83489  -0.05414
 This molecule is a spherical top.
 Rotational symmetry number 12.
 Rotational temperatures (Kelvin)      4.65835     4.65835     4.65835
 Rotational constants (GHZ):          97.06421    97.06421    97.06421
 Zero-point vibrational energy      95544.8 (Joules/Mol)
                                   22.83575 (Kcal/Mol)
 Vibrational temperatures:   1496.57  1496.57  1496.57  1786.75  1786.75
          (Kelvin)           3681.10  3746.17  3746.17  3746.17

 Zero-point correction=                           0.036391 (Hartree/Particle)
 Thermal correction to Energy=                    0.039347
 Thermal correction to Enthalpy=                  0.040291
 Thermal correction to Gibbs Free Energy=         0.017259
 Sum of electronic and zero-point Energies=           -340.961780
 Sum of electronic and thermal Energies=              -340.958824
 Sum of electronic and thermal Enthalpies=            -340.957880
 Sum of electronic and thermal Free Energies=         -340.980912

                     E (Thermal)             CV                S
                      KCal/Mol        Cal/Mol-Kelvin    Cal/Mol-Kelvin
 Total                   24.690              7.330             48.475
 Electronic               0.000              0.000              0.000
 Translational            0.889              2.981             36.589
 Rotational               0.889              2.981             11.577
 Vibrational             22.913              1.369              0.309

 Optimization completed.
    -- Stationary point found.
 Normal termination of Gaussian 16 at Mon Jun 16 16:25:31 2025.
