 Gaussian 16, Revision B.01,
 Gaussian 16:  EM64L-G16RevB.01 20-Dec-2017

 --------------------------------------
 # uhf/3-21g pop=full geom=connectivity
 --------------------------------------

 --------------
 BF3- planar sp
 --------------
 Symbolic Z-matrix:
 Charge = -1 Multiplicity = 2

                         Standard orientation:
 ---------------------------------------------------------------------
 Center     Atomic      Atomic             Coordinates (Angstroms)
 Number     Number       Type             X           Y           Z
 ---------------------------------------------------------------------
      1          5           0        0.000000   -0.000000    0.495788
      2          9           0        0.000000    1.421583   -0.091813
      3          9           0       -1.231127   -0.710791   -0.091813
      4          9           0        1.231127   -0.710791   -0.091813
 ---------------------------------------------------------------------

 SCF Done:  E(UHF) =  -321.375005307     A.U. after   12 cycles

 The electronic state is 2-A1.
 Alpha  occ. eigenvalues --  -25.85291 -25.85203 -25.85203  -7.44029  -1.28273
 Alpha  occ. eigenvalues --   -1.24957  -1.24957  -0.49008  -0.40143  -0.40143
 Alpha  occ. eigenvalues --   -0.39473  -0.34363  -0.34363  -0.31386  -0.31386
 Alpha  occ. eigenvalues --   -0.30823  -0.10249
 Alpha virt. eigenvalues --    0.54762   0.54762   0.64985   0.84160   0.93717
 Alpha virt. eigenvalues --    0.93717   1.07692   2.45918   2.45918   2.58139
 Alpha virt. eigenvalues --    2.60122   2.62773   2.62773   2.71384   2.71384

  Beta  occ. eigenvalues --  -25.84918 -25.84830 -25.84830  -7.41881  -1.27125
  Beta  occ. eigenvalues --   -1.23860  -1.23860  -0.46530  -0.38756  -0.38756
  Beta  occ. eigenvalues --   -0.35501  -0.32061  -0.32061  -0.31257  -0.31257
  Beta  occ. eigenvalues --   -0.30714
  Beta virt. eigenvalues --    0.37168   0.59670   0.59670   0.65769   0.93696
  Beta virt. eigenvalues --    0.96125   0.96125   1.10525   2.46747   2.46747
  Beta virt. eigenvalues --    2.58281   2.61559   2.63595   2.63595   2.71952

 Mulliken charges and spin densities:
               1          2
     1  B    0.633673   0.886936
     2  F   -0.544558   0.037688
     3  F   -0.544558   0.037688
     4  F   -0.544558   0.037688
 Sum of Mulliken charges =  -1.00000   1.00000

 Dipole moment (field-independent basis, Debye):
    X=              0.0000    Y=              0.0000    Z=              0.3813  Tot=              0.3813
 Quadrupole moment (field-independent basis, Debye-Ang):
   XX=            -27.4216   YY=            -27.4216   ZZ=            -21.5733
   XY=              0.0000   XZ=             -0.0000   YZ=              0.0000

 Normal termination of Gaussian 16 at Mon Jun 16 20:02:44 2025.
