 Gaussian 16, Revision B.01,
 Gaussian 16:  EM64L-G16RevB.01 20-Dec-2017

 ----------------------------------------------
 # opt freq hf/3-21g pop=full geom=connectivity
 ----------------------------------------------

 ---------------
 MX3- planar opt
 ---------------
 Symbolic Z-matrix:
 Charge = -1 Multiplicity = 2

 SCF Done:  E(UHF) =  -321.324355772     A.U. after   12 cycles
 SCF Done:  E(UHF) =  -321.327541705     A.U. after   10 cycles
 SCF Done:  E(UHF) =  -321.327546034     A.U. after    8 cycles
 Optimization completed.
    -- Stationary point found.
 Normal termination of Gaussian 16 at Mon Jun 16 20:00:01 2025.

 --------------------------------------------------------------
 #N Geom=AllCheck Guess=TCheck SCRF=Check GenChk UHF/3-21G Freq
 --------------------------------------------------------------

 Structure from the checkpoint file:  "MX3_planar_ion_opt.chk"
 ---------------
 MX3- planar opt
 ---------------
 Charge = -1 Multiplicity = 2

                         Standard orientation:
 ---------------------------------------------------------------------
 Center     Atomic      Atomic             Coordinates (Angstroms)
 Number     Number       Type             X           Y           Z
 ---------------------------------------------------------------------
      1          5           0        0.000000    0.000000    0.000000
      2          9           0        0.000000    1.421583    0.000000
      3          9           0        1.231127   -0.710791    0.000000
      4          9           0       -1.231127   -0.710791   -0.000000
 ---------------------------------------------------------------------

 SCF Done:  E(UHF) =  -321.327546034     A.U. after    1 cycles

 The electronic state is 2-A2".
 Alpha  occ. eigenvalues --  -25.86741 -25.86731 -25.86731  -7.36444  -1.30792
 Alpha  occ. eigenvalues --   -1.27673  -1.27673  -0.49646  -0.42908  -0.42749
 Alpha  occ. eigenvalues --   -0.42749  -0.36996  -0.36996  -0.34066  -0.34066
 Alpha  occ. eigenvalues --   -0.32402   0.09380
 Alpha virt. eigenvalues --    0.48569   0.66630   0.66630   0.83013   1.05336
 Alpha virt. eigenvalues --    1.05336   1.14056   2.46664   2.46664   2.56613
 Alpha virt. eigenvalues --    2.60150   2.60150   2.69429   2.71484   2.72649

  Beta  occ. eigenvalues --  -25.86432 -25.86422 -25.86422  -7.34818  -1.29904
  Beta  occ. eigenvalues --   -1.27067  -1.27067  -0.47617  -0.42719  -0.42719
  Beta  occ. eigenvalues --   -0.38215  -0.34482  -0.34482  -0.32957  -0.32957
  Beta  occ. eigenvalues --   -0.32263
  Beta virt. eigenvalues --    0.50828   0.55977   0.68073   0.68073   0.94553
  Beta virt. eigenvalues --    1.07263   1.07263   1.17926   2.49532   2.49532
  Beta virt. eigenvalues --    2.56761   2.60365   2.60365   2.71461   2.71726

 Mulliken charges and spin densities:
               1          2
     1  B    0.522809   0.986750
     2  F   -0.507603   0.004417
     3  F   -0.507603   0.004417
     4  F   -0.507603   0.004417
 Sum of Mulliken charges =  -1.00000   1.00000

 Dipole moment (field-independent basis, Debye):
    X=             -0.0000    Y=              0.0000    Z=             -0.0000  Tot=              0.0000
 Quadrupole moment (field-independent basis, Debye-Ang):
   XX=            -26.7721   YY=            -26.7721   ZZ=            -21.4909
   XY=             -0.0000   XZ=             -0.0000   YZ=             -0.0000

  Exact polarizability:   8.609  -0.000   8.609  -0.000  -0.000  35.288
 Approx polarizability:   7.090  -0.000   7.090  -0.000  -0.000  10.885

 ******    1 imaginary frequencies (negative Signs) ******

                      1                      2                      3
                     A2"                    E'                     E'
 Frequencies --  -1836.7602               405.8151               405.8151
 Red. masses --     11.8135                17.8956                17.8956
 Frc consts  --     23.4820                 1.7364                 1.7364
 IR Inten    --   3521.5009                 8.1070                 8.1070
 Raman Activ --      0.0000                 0.8598                 0.8598

                      4                      5                      6
                     A1'                    E'                     E'
 Frequencies --    776.1279              1357.3831              1357.3831
 Red. masses --     18.9984                12.2843                12.2843
 Frc consts  --      6.7427                13.3353                13.3353
 IR Inten    --      0.0000               205.8295               205.8295
 Raman Activ --      6.6977                 0.1624                 0.1624

 - Thermochemistry -
 -------------------
 Temperature   298.150 Kelvin.  Pressure   1.00000 Atm.
 Atom     1 has atomic number  5 and mass  11.00931

 Molecular mass:    68.00452 amu.
 Principal axes and moments of inertia in atomic units:
                           1         2         3
     Eigenvalues --   205.66026 205.66026 411.32052
           X           -0.54775   0.83664   0.00000
           Y            0.83664   0.54775   0.00000
           Z            0.00000  -0.00000   1.00000
 This molecule is an oblate symmetric top.
 Rotational symmetry number  6.
 Rotational temperatures (Kelvin)      0.42115     0.42115     0.21058
 Rotational constants (GHZ):           8.77535     8.77535     4.38768
    1 imaginary frequencies ignored.
 Zero-point vibrational energy      25734.8 (Joules/Mol)
                                    6.15077 (Kcal/Mol)
 Warning -- explicit consideration of   2 degrees of freedom as
           vibrations may cause significant error
 Vibrational temperatures:    583.88   583.88  1116.67  1952.97  1952.97
          (Kelvin)

 Zero-point correction=                           0.009802 (Hartree/Particle)
 Thermal correction to Energy=                    0.013345
 Thermal correction to Enthalpy=                  0.014289
 Thermal correction to Gibbs Free Energy=        -0.015600
 Sum of electronic and zero-point Energies=           -321.317744
 Sum of electronic and thermal Energies=              -321.314201
 Sum of electronic and thermal Enthalpies=            -321.313257
 Sum of electronic and thermal Free Energies=         -321.343146

                     E (Thermal)             CV                S
                      KCal/Mol        Cal/Mol-Kelvin    Cal/Mol-Kelvin
 Total                    8.374              9.812             62.907
 Electronic               0.000              0.000              1.377
 Translational            0.889              2.981             38.569
 Rotational               0.889              2.981             20.807
 Vibrational              6.597              3.851              2.154
 Vibration     1          0.771              1.458              0.942
 Vibration     2          0.771              1.458              0.942

 Optimization completed.
    -- Stationary point found.
 Normal termination of Gaussian 16 at Mon Jun 16 20:00:02 2025.
