 Gaussian 16, Revision B.01,
 Gaussian 16:  EM64L-G16RevB.01 20-Dec-2017

 -----------------------------------------------
 # opt freq uhf/3-21g pop=full geom=connectivity
 -----------------------------------------------

 -------------------------
 BF3- planar opt structure
 -------------------------
 Symbolic Z-matrix:
 Charge = -1 Multiplicity = 2

 SCF Done:  E(UHF) =  -321.375005307     A.U. after   12 cycles
 SCF Done:  E(UHF) =  -321.399968056     A.U. after   11 cycles
 SCF Done:  E(UHF) =  -321.401888362     A.U. after   10 cycles
 SCF Done:  E(UHF) =  -321.401887908     A.U. after    8 cycles
 SCF Done:  E(UHF) =  -321.401893914     A.U. after    8 cycles
 Optimization completed.
    -- Stationary point found.
 Normal termination of Gaussian 16 at Mon Jun 16 20:01:25 2025.

 --------------------------------------------------------------
 #N Geom=AllCheck Guess=TCheck SCRF=Check GenChk UHF/3-21G Freq
 --------------------------------------------------------------

 Structure from the checkpoint file:  "MX3_planar_ion_reopt.chk"
 -------------------------
 BF3- planar opt structure
 -------------------------
 Charge = -1 Multiplicity = 2

                         Standard orientation:
 ---------------------------------------------------------------------
 Center     Atomic      Atomic             Coordinates (Angstroms)
 Number     Number       Type             X           Y           Z
 ---------------------------------------------------------------------
      1          5           0        0.000000    0.000000    0.408269
      2          9           0        0.000000    1.333714   -0.075605
      3          9           0       -1.155031   -0.666857   -0.075605
      4          9           0        1.155031   -0.666857   -0.075605
 ---------------------------------------------------------------------

 SCF Done:  E(UHF) =  -321.401893914     A.U. after    1 cycles

 The electronic state is 2-A1.
 Alpha  occ. eigenvalues --  -25.85813 -25.85724 -25.85724  -7.39174  -1.31981
 Alpha  occ. eigenvalues --   -1.27199  -1.27199  -0.51010  -0.43291  -0.43291
 Alpha  occ. eigenvalues --   -0.42352  -0.35875  -0.35875  -0.32528  -0.32528
 Alpha  occ. eigenvalues --   -0.31038  -0.04285
 Alpha virt. eigenvalues --    0.60471   0.60471   0.68908   0.86200   1.01898
 Alpha virt. eigenvalues --    1.01898   1.15422   2.44503   2.44503   2.61732
 Alpha virt. eigenvalues --    2.61790   2.62887   2.62887   2.70232   2.77034

  Beta  occ. eigenvalues --  -25.85415 -25.85327 -25.85327  -7.37265  -1.30785
  Beta  occ. eigenvalues --   -1.26069  -1.26069  -0.49332  -0.42174  -0.42174
  Beta  occ. eigenvalues --   -0.37864  -0.33672  -0.33672  -0.32027  -0.32027
  Beta  occ. eigenvalues --   -0.30915
  Beta virt. eigenvalues --    0.42960   0.64742   0.64742   0.69530   0.96082
  Beta virt. eigenvalues --    1.04588   1.04588   1.17939   2.45539   2.45539
  Beta virt. eigenvalues --    2.61899   2.63113   2.63859   2.63859   2.71486

 Mulliken charges and spin densities:
               1          2
     1  B    0.604747   0.907457
     2  F   -0.534916   0.030848
     3  F   -0.534916   0.030848
     4  F   -0.534916   0.030848
 Sum of Mulliken charges =  -1.00000   1.00000

 Dipole moment (field-independent basis, Debye):
    X=              0.0000    Y=             -0.0000    Z=             -0.3071  Tot=              0.3071
 Quadrupole moment (field-independent basis, Debye-Ang):
   XX=            -26.4419   YY=            -26.4419   ZZ=            -21.8518
   XY=             -0.0000   XZ=             -0.0000   YZ=              0.0000

  Exact polarizability:  11.554   0.000  11.554   0.000   0.000   7.005
 Approx polarizability:   8.923   0.000   8.923   0.000  -0.000   4.788

                      1                      2                      3
                      E                      E                     A1
 Frequencies --    432.7679               432.7679               623.1274
 Red. masses --     18.0480                18.0480                16.5815
 Frc consts  --      1.9915                 1.9915                 3.7934
 IR Inten    --      2.0411                 2.0411                20.3693
 Raman Activ --      0.1987                 0.1987                 0.5169

                      4                      5                      6
                     A1                      E                      E
 Frequencies --   1072.5629              1230.2840              1230.2840
 Red. masses --     12.9910                12.4118                12.4118
 Frc consts  --      8.8052                11.0687                11.0687
 IR Inten    --    119.6530               217.3274               217.3274
 Raman Activ --      1.9149                 1.4769                 1.4769

 - Thermochemistry -
 -------------------
 Temperature   298.150 Kelvin.  Pressure   1.00000 Atm.
 Atom     1 has atomic number  5 and mass  11.00931

 Molecular mass:    68.00452 amu.
 Principal axes and moments of inertia in atomic units:
                           1         2         3
     Eigenvalues --   188.73697 188.73697 362.04438
           X           -0.36330   0.93167   0.00000
           Y            0.93167   0.36330   0.00000
           Z           -0.00000   0.00000   1.00000
 This molecule is an oblate symmetric top.
 Rotational symmetry number  3.
 Rotational temperatures (Kelvin)      0.45891     0.45891     0.23924
 Rotational constants (GHZ):           9.56220     9.56220     4.98486
 Zero-point vibrational energy      30037.0 (Joules/Mol)
                                    7.17901 (Kcal/Mol)
 Warning -- explicit consideration of   2 degrees of freedom as
           vibrations may cause significant error
 Vibrational temperatures:    622.66   622.66   896.54  1543.18  1770.10
          (Kelvin)           1770.10

 Zero-point correction=                           0.011440 (Hartree/Particle)
 Thermal correction to Energy=                    0.015036
 Thermal correction to Enthalpy=                  0.015980
 Thermal correction to Gibbs Free Energy=        -0.014470
 Sum of electronic and zero-point Energies=           -321.390453
 Sum of electronic and thermal Energies=              -321.386858
 Sum of electronic and thermal Enthalpies=            -321.385914
 Sum of electronic and thermal Free Energies=         -321.416364

                     E (Thermal)             CV                S
                      KCal/Mol        Cal/Mol-Kelvin    Cal/Mol-Kelvin
 Total                    9.435             10.419             64.087
 Electronic               0.000              0.000              1.377
 Translational            0.889              2.981             38.569
 Rotational               0.889              2.981             21.887
 Vibrational              7.658              4.457              2.254
 Vibration     1          0.794              1.399              0.850
 Vibration     2          0.794              1.399              0.850

 Optimization completed.
    -- Stationary point found.
 Normal termination of Gaussian 16 at Mon Jun 16 20:01:27 2025.
