 Gaussian 16, Revision B.01,
 Gaussian 16:  EM64L-G16RevB.01 20-Dec-2017

 -------------------------------------
 # hf/3-21g pop=full geom=connectivity
 -------------------------------------

 --------------
 BF3 pyramid sp
 --------------
 Symbolic Z-matrix:
 Charge =  0 Multiplicity = 1

                         Standard orientation:
 ---------------------------------------------------------------------
 Center     Atomic      Atomic             Coordinates (Angstroms)
 Number     Number       Type             X           Y           Z
 ---------------------------------------------------------------------
      1          5           0        0.000000    0.000000    0.394480
      2          9           0        0.000000    1.322380   -0.073052
      3          9           0       -1.145215   -0.661190   -0.073052
      4          9           0        1.145215   -0.661190   -0.073052
 ---------------------------------------------------------------------

 SCF Done:  E(RHF) =  -321.392248183     A.U. after   10 cycles

 The electronic state is 1-A1.
 Alpha  occ. eigenvalues --  -26.19559 -26.19473 -26.19473  -7.80958  -1.64022
 Alpha  occ. eigenvalues --   -1.58803  -1.58803  -0.81364  -0.74641  -0.74641
 Alpha  occ. eigenvalues --   -0.71047  -0.64739  -0.64739  -0.63359  -0.63359
 Alpha  occ. eigenvalues --   -0.62339
 Alpha virt. eigenvalues --    0.01724   0.33915   0.33915   0.41988   0.56067
 Alpha virt. eigenvalues --    0.68001   0.68001   0.84604   2.14211   2.14211
 Alpha virt. eigenvalues --    2.31863   2.32381   2.33717   2.33717   2.41261

 Mulliken charges:
               1
     1  B    1.190668
     2  F   -0.396889
     3  F   -0.396889
     4  F   -0.396889
 Sum of Mulliken charges =   0.00000

 Dipole moment (field-independent basis, Debye):
    X=              0.0000    Y=             -0.0000    Z=              2.9575  Tot=              2.9575
 Quadrupole moment (field-independent basis, Debye-Ang):
   XX=            -22.7347   YY=            -22.7347   ZZ=            -15.8249
   XY=              0.0000   XZ=             -0.0000   YZ=              0.0000

 Normal termination of Gaussian 16 at Mon Jun 16 19:53:16 2025.
