 Gaussian 16, Revision B.01,
 Gaussian 16:  EM64L-G16RevB.01 20-Dec-2017

 -------------------------------------
 # hf/3-21g pop=full geom=connectivity
 -------------------------------------

 --------
 BCl4- sp
 --------
 Symbolic Z-matrix:
 Charge = -1 Multiplicity = 1

                          Input orientation:
 ---------------------------------------------------------------------
 Center     Atomic      Atomic             Coordinates (Angstroms)
 Number     Number       Type             X           Y           Z
 ---------------------------------------------------------------------
      1          5           0        0.000000    0.000000    0.000000
      2         17           0       -0.384703    1.567820   -1.022489
      3         17           0        1.860856   -0.037457    0.432844
      4         17           0       -0.447880   -1.552027   -1.020860
      5         17           0       -1.028273    0.021663    1.610505
 ---------------------------------------------------------------------

 SCF Done:  E(RHF) =  -1853.97273457     A.U. after    9 cycles

 Alpha  occ. eigenvalues -- -103.92854-103.92854-103.92854-103.92817 -10.32325
 Alpha  occ. eigenvalues --  -10.32325 -10.32325 -10.32206  -7.78652  -7.78652
 Alpha  occ. eigenvalues --   -7.78652  -7.78627  -7.78309  -7.78309  -7.78309
 Alpha  occ. eigenvalues --   -7.78286  -7.78286  -7.78286  -7.78279  -7.78279
 Alpha  occ. eigenvalues --   -7.58446  -0.98100  -0.91122  -0.91122  -0.91122
 Alpha  occ. eigenvalues --   -0.51652  -0.39943  -0.39943  -0.39943  -0.31960
 Alpha  occ. eigenvalues --   -0.31960  -0.28424  -0.28424  -0.28424  -0.27007
 Alpha  occ. eigenvalues --   -0.27007  -0.27007
 Alpha virt. eigenvalues --    0.35241   0.38777   0.38777   0.38777   0.80661
 Alpha virt. eigenvalues --    0.81457   0.81457   0.81457   0.92893   0.92893
 Alpha virt. eigenvalues --    0.92893   0.93005   0.94076   0.94076   0.97667

 Mulliken charges:
               1
     1  B    0.114794
     2  Cl  -0.278698
     3  Cl  -0.278699
     4  Cl  -0.278698
     5  Cl  -0.278699
 Sum of Mulliken charges =  -1.00000

 Dipole moment (field-independent basis, Debye):
    X=             -0.0000    Y=              0.0000    Z=             -0.0000  Tot=              0.0000
 Quadrupole moment (field-independent basis, Debye-Ang):
   XX=            -69.8179   YY=            -69.8179   ZZ=            -69.8179
   XY=              0.0000   XZ=              0.0000   YZ=              0.0000

 Normal termination of Gaussian 16 at Mon Jun 16 21:18:06 2025.
