 Gaussian 16, Revision B.01,
 Gaussian 16:  EM64L-G16RevB.01 20-Dec-2017

 ----------------------------------------------
 # opt freq hf/3-21g pop=full geom=connectivity
 ----------------------------------------------

 ---------
 BCl4- opt
 ---------
 Symbolic Z-matrix:
 Charge = -1 Multiplicity = 1

 SCF Done:  E(RHF) =  -1853.97018113     A.U. after    9 cycles
 SCF Done:  E(RHF) =  -1853.97273457     A.U. after    8 cycles
 Optimization completed.
    -- Stationary point found.
 Normal termination of Gaussian 16 at Mon Jun 16 21:17:20 2025.

 --------------------------------------------------------------
 #N Geom=AllCheck Guess=TCheck SCRF=Check GenChk RHF/3-21G Freq
 --------------------------------------------------------------

 Structure from the checkpoint file:  "BCl4_ion_opt.chk"
 ---------
 BCl4- opt
 ---------
 Charge = -1 Multiplicity = 1

                         Standard orientation:
 ---------------------------------------------------------------------
 Center     Atomic      Atomic             Coordinates (Angstroms)
 Number     Number       Type             X           Y           Z
 ---------------------------------------------------------------------
      1          5           0        0.000000    0.000000    0.000000
      2         17           0       -0.384703    1.567820   -1.022489
      3         17           0        1.860856   -0.037457    0.432844
      4         17           0       -0.447880   -1.552027   -1.020860
      5         17           0       -1.028273    0.021663    1.610505
 ---------------------------------------------------------------------

 SCF Done:  E(RHF) =  -1853.97273457     A.U. after    1 cycles

 The electronic state is 1-A.
 Alpha  occ. eigenvalues -- -103.92854-103.92854-103.92854-103.92817 -10.32325
 Alpha  occ. eigenvalues --  -10.32325 -10.32325 -10.32206  -7.78652  -7.78652
 Alpha  occ. eigenvalues --   -7.78652  -7.78627  -7.78309  -7.78309  -7.78309
 Alpha  occ. eigenvalues --   -7.78286  -7.78286  -7.78286  -7.78279  -7.78279
 Alpha  occ. eigenvalues --   -7.58446  -0.98100  -0.91122  -0.91122  -0.91122
 Alpha  occ. eigenvalues --   -0.51652  -0.39943  -0.39943  -0.39943  -0.31960
 Alpha  occ. eigenvalues --   -0.31960  -0.28424  -0.28424  -0.28424  -0.27007
 Alpha  occ. eigenvalues --   -0.27007  -0.27007
 Alpha virt. eigenvalues --    0.35241   0.38777   0.38777   0.38777   0.80661
 Alpha virt. eigenvalues --    0.81457   0.81457   0.81457   0.92893   0.92893
 Alpha virt. eigenvalues --    0.92893   0.93005   0.94076   0.94076   0.97667

 Mulliken charges:
               1
     1  B    0.114794
     2  Cl  -0.278699
     3  Cl  -0.278699
     4  Cl  -0.278699
     5  Cl  -0.278699
 Sum of Mulliken charges =  -1.00000

 Dipole moment (field-independent basis, Debye):
    X=             -0.0000    Y=              0.0000    Z=             -0.0000  Tot=              0.0000
 Quadrupole moment (field-independent basis, Debye-Ang):
   XX=            -69.8179   YY=            -69.8179   ZZ=            -69.8179
   XY=              0.0000   XZ=             -0.0000   YZ=             -0.0000

  Exact polarizability:  42.021  -0.000  42.021   0.000   0.000  42.021
 Approx polarizability:  33.991   0.000  33.991  -0.000   0.000  33.991

                      1                      2                      3
                      A                      A                      A
 Frequencies --    192.7750               192.7750               271.6481
 Red. masses --     34.9689                34.9689                32.2567
 Frc consts  --      0.7657                 0.7657                 1.4024
 IR Inten    --      0.0000                 0.0000                 0.1563
 Raman Activ --      5.1672                 5.1672                 6.3869

                      4                      5                      6
                      A                      A                      A
 Frequencies --    271.6481               271.6481               383.6171
 Red. masses --     32.2567                32.2567                34.9689
 Frc consts  --      1.4024                 1.4024                 3.0320
 IR Inten    --      0.1563                 0.1563                 0.0000
 Raman Activ --      6.3869                 6.3869                12.9222

                      7                      8                      9
                      A                      A                      A
 Frequencies --    647.3688               647.3689               647.3689
 Red. masses --     11.9208                11.9208                11.9208
 Frc consts  --      2.9435                 2.9435                 2.9435
 IR Inten    --    393.6873               393.6873               393.6873
 Raman Activ --      0.8642                 0.8642                 0.8642

 - Thermochemistry -
 -------------------
 Temperature   298.150 Kelvin.  Pressure   1.00000 Atm.
 Atom     1 has atomic number  5 and mass  11.00931

 Molecular mass:   150.88472 amu.
 Principal axes and moments of inertia in atomic units:
                           1         2         3
     Eigenvalues --  1215.973091215.973151215.97317
           X            0.99992   0.00000   0.01279
           Y            0.00016   0.99992  -0.01253
           Z           -0.01279   0.01253   0.99984
 This molecule is an asymmetric top.
 Rotational symmetry number  1.
 Warning -- assumption of classical behavior for rotation
           may cause significant error
 Rotational temperatures (Kelvin)      0.07123     0.07123     0.07123
 Rotational constants (GHZ):           1.48420     1.48419     1.48419
 Zero-point vibrational energy      21091.5 (Joules/Mol)
                                    5.04098 (Kcal/Mol)
 Warning -- explicit consideration of   6 degrees of freedom as
           vibrations may cause significant error
 Vibrational temperatures:    277.36   277.36   390.84   390.84   390.84
          (Kelvin)            551.94   931.42   931.42   931.42

 Zero-point correction=                           0.008033 (Hartree/Particle)
 Thermal correction to Energy=                    0.014113
 Thermal correction to Enthalpy=                  0.015058
 Thermal correction to Gibbs Free Energy=        -0.023537
 Sum of electronic and zero-point Energies=          -1853.964701
 Sum of electronic and thermal Energies=             -1853.958621
 Sum of electronic and thermal Enthalpies=           -1853.957677
 Sum of electronic and thermal Free Energies=        -1853.996272

                     E (Thermal)             CV                S
                      KCal/Mol        Cal/Mol-Kelvin    Cal/Mol-Kelvin
 Total                    8.856             19.143             81.229
 Electronic               0.000              0.000              0.000
 Translational            0.889              2.981             40.944
 Rotational               0.889              2.981             28.976
 Vibrational              7.079             13.181             11.309
 Vibration     1          0.635              1.850              2.201
 Vibration     2          0.635              1.850              2.201
 Vibration     3          0.675              1.726              1.586
 Vibration     4          0.675              1.726              1.586
 Vibration     5          0.675              1.726              1.586
 Vibration     6          0.753              1.505              1.025

 Optimization completed.
    -- Stationary point found.
 Normal termination of Gaussian 16 at Mon Jun 16 21:17:22 2025.
