 Gaussian 16, Revision B.01,
 Gaussian 16:  EM64L-G16RevB.01 20-Dec-2017

 -----------------------------------------
 # opt freq am1 pop=full geom=connectivity
 -----------------------------------------

 ------------
 Optimisation
 ------------
 Symbolic Z-matrix:
 Charge = -1 Multiplicity = 1

 SCF Done:  E(RAM1) =  0.623351542239E-01 A.U. after   16 cycles
 SCF Done:  E(RAM1) =  0.534027276495E-01 A.U. after   16 cycles
 SCF Done:  E(RAM1) =  0.522681335546E-01 A.U. after   16 cycles
 SCF Done:  E(RAM1) =  0.518755246640E-01 A.U. after   16 cycles
 SCF Done:  E(RAM1) =  0.511989531103E-01 A.U. after   17 cycles
 SCF Done:  E(RAM1) =  0.507639140369E-01 A.U. after   17 cycles
 SCF Done:  E(RAM1) =  0.502724584099E-01 A.U. after   15 cycles
 SCF Done:  E(RAM1) =  0.505023612889E-01 A.U. after   17 cycles
 SCF Done:  E(RAM1) =  0.495164806256E-01 A.U. after   16 cycles
 SCF Done:  E(RAM1) =  0.492631732777E-01 A.U. after   15 cycles
 SCF Done:  E(RAM1) =  0.490247695711E-01 A.U. after   14 cycles
 SCF Done:  E(RAM1) =  0.490114308944E-01 A.U. after   14 cycles
 SCF Done:  E(RAM1) =  0.490076819696E-01 A.U. after   14 cycles
 SCF Done:  E(RAM1) =  0.490049838900E-01 A.U. after   14 cycles
 SCF Done:  E(RAM1) =  0.489985236441E-01 A.U. after   15 cycles
 SCF Done:  E(RAM1) =  0.489950475305E-01 A.U. after   15 cycles
 SCF Done:  E(RAM1) =  0.489941530446E-01 A.U. after   14 cycles
 SCF Done:  E(RAM1) =  0.489937901211E-01 A.U. after   14 cycles
 SCF Done:  E(RAM1) =  0.489936737992E-01 A.U. after   13 cycles
 Optimization completed.
    -- Stationary point found.
 Normal termination of Gaussian 16 at Thu Jun 12 22:46:03 2025.

 -------------------------------------------------------------
 #N Geom=AllCheck Guess=TCheck SCRF=Check GenChk RAM1/ZDO Freq
 -------------------------------------------------------------

 Structure from the checkpoint file:  "cycloheptatrienyl_anion_opt.chk"
 ------------
 Optimisation
 ------------
 Charge = -1 Multiplicity = 1

                         Standard orientation:
 ---------------------------------------------------------------------
 Center     Atomic      Atomic             Coordinates (Angstroms)
 Number     Number       Type             X           Y           Z
 ---------------------------------------------------------------------
      1          6           0        0.525523   -1.244559   -0.000004
      2          6           0       -0.783743   -1.572891   -0.000055
      3          6           0       -1.925408   -0.682056    0.000091
      4          6           0        1.167572    0.021761    0.000400
      5          6           0       -1.929529    0.658735   -0.000061
      6          6           0        0.510922    1.255530    0.000110
      7          6           0       -0.816774    1.567038   -0.000104
      8          1           0        1.235259   -2.101333   -0.000207
      9          1           0       -1.051630   -2.642636   -0.000326
     10          1           0       -2.898253   -1.207269    0.000190
     11          1           0       -2.915360    1.165444   -0.000138
     12          1           0        1.191715    2.136971    0.000084
     13          1           0       -1.094618    2.632274   -0.000384
     14          6           0        2.644254    0.003383   -0.000080
     15          1           0        3.050340   -0.543067    0.892517
     16          1           0        3.050396   -0.517869   -0.907718
     17          1           0        3.075245    1.035838    0.014201
 ---------------------------------------------------------------------

 SCF Done:  E(RAM1) =  0.489936738001E-01 A.U. after    2 cycles

 The electronic state is 1-A.
 Alpha  occ. eigenvalues --   -1.21247  -1.06786  -1.01282  -0.88205  -0.73544
 Alpha  occ. eigenvalues --   -0.69319  -0.49587  -0.48324  -0.44928  -0.35631
 Alpha  occ. eigenvalues --   -0.35098  -0.34684  -0.32787  -0.29216  -0.27796
 Alpha  occ. eigenvalues --   -0.27452  -0.25177  -0.23190  -0.19267  -0.18594
 Alpha  occ. eigenvalues --   -0.04289
 Alpha virt. eigenvalues --    0.19039   0.27721   0.28057   0.31703   0.32043
 Alpha virt. eigenvalues --    0.32522   0.32783   0.33490   0.33532   0.34139
 Alpha virt. eigenvalues --    0.35079   0.35837   0.37231   0.38322   0.38932

 Mulliken charges:
               1
     1  C    0.057500
     2  C   -0.323573
     3  C   -0.168085
     4  C   -0.475374
     5  C   -0.058605
     6  C    0.098452
     7  C   -0.426525
     8  H    0.049273
     9  H    0.062864
    10  H    0.058087
    11  H    0.052726
    12  H    0.045220
    13  H    0.064843
    14  C   -0.074688
    15  H    0.007260
    16  H    0.006712
    17  H    0.023913
 Sum of Mulliken charges =  -1.00000

 Dipole moment (field-independent basis, Debye):
    X=              0.6398    Y=             -0.2118    Z=              0.0014  Tot=              0.6740
 N-N= 1.909772272575D+02 E-N=-2.964835723000D+02  KE=-6.504486332877D+01
 Orbital energies and kinetic energies (alpha):
                                 1                 2
   1         O                -1.212474         -2.421150
   2         O                -1.067855         -2.221383
   3         O                -1.012824         -2.186428
   4         O                -0.882047         -1.958914
   5         O                -0.735440         -1.850310
   6         O                -0.693195         -1.780824
   7         O                -0.495866         -1.537044

  Exact polarizability: 110.388  -4.664 101.109  -0.054   0.004  21.906
 Approx polarizability:  78.122  -1.248  74.560  -0.020  -0.000  14.684

                      1                      2                      3
                      A                      A                      A
 Frequencies --     46.6849                64.7671               252.0869
 Red. masses --      1.0710                 2.3480                 2.7096
 Frc consts  --      0.0014                 0.0058                 0.1015
 IR Inten    --      0.1436                 0.3908                 0.2718

                      4                      5                      6
                      A                      A                      A
 Frequencies --    262.6155               372.1720               410.2371
 Red. masses --      2.8103                 2.7311                 6.2967
 Frc consts  --      0.1142                 0.2229                 0.6244
 IR Inten    --      0.1242                44.2969                 1.0784

                      7                      8                      9
                      A                      A                      A
 Frequencies --    468.9299               491.9193               501.6251
 Red. masses --      1.9791                 6.1045                 2.0707
 Frc consts  --      0.2564                 0.8703                 0.3070
 IR Inten    --      9.0223                29.7002               104.9302

                     10                     11                     12
                      A                      A                      A
 Frequencies --    626.7552               708.0339               752.8827
 Red. masses --      8.4269                 1.2366                 1.3283
 Frc consts  --      1.9504                 0.3652                 0.4436
 IR Inten    --   1291.7437                39.2650                 0.0035

                     13                     14                     15
                      A                      A                      A
 Frequencies --    801.8443               841.4077               917.9779
 Red. masses --      5.1498                 1.5571                 5.6443
 Frc consts  --      1.9508                 0.6495                 2.8024
 IR Inten    --     14.3201                 3.3344                85.8372

                     16                     17                     18
                      A                      A                      A
 Frequencies --    944.8956               954.9983               969.3362
 Red. masses --      1.4910                 1.5290                 1.4113
 Frc consts  --      0.7843                 0.8216                 0.7813
 IR Inten    --     29.0663                 1.2452                 0.0007

                     19                     20                     21
                      A                      A                      A
 Frequencies --    992.0491              1075.1827              1084.3543
 Red. masses --      5.0472                 1.3856                 1.4733
 Frc consts  --      2.9266                 0.9438                 1.0206
 IR Inten    --      4.9166                12.7620                32.1465

                     22                     23                     24
                      A                      A                      A
 Frequencies --   1114.6718              1180.1124              1285.1130
 Red. masses --      1.6868                 1.4694                 1.0402
 Frc consts  --      1.2348                 1.2057                 1.0122
 IR Inten    --     18.8878               162.4761                 4.4576

                     25                     26                     27
                      A                      A                      A
 Frequencies --   1299.6215              1307.2466              1370.0055
 Red. masses --      1.0796                 1.0879                 1.6843
 Frc consts  --      1.0744                 1.0954                 1.8626
 IR Inten    --      8.7735                24.9244                 0.3890

                     28                     29                     30
                      A                      A                      A
 Frequencies --   1380.3452              1394.1402              1402.1045
 Red. masses --      1.2232                 1.0711                 1.1385
 Frc consts  --      1.3732                 1.2265                 1.3187
 IR Inten    --     12.7208                 4.8140                30.9567

                     31                     32                     33
                      A                      A                      A
 Frequencies --   1452.9239              1512.2189              1561.1811
 Red. masses --      1.4317                 2.6040                 3.2878
 Frc consts  --      1.7807                 3.5085                 4.7214
 IR Inten    --     66.3099                89.8100                86.1112

                     34                     35                     36
                      A                      A                      A
 Frequencies --   1656.2490              1863.8338              1938.6151
 Red. masses --      7.9327                 9.1893                10.9186
 Frc consts  --     12.8210                18.8081                24.1770
 IR Inten    --     88.7558               177.4236               198.4593

                     37                     38                     39
                      A                      A                      A
 Frequencies --   2983.2734              3019.0377              3076.1238
 Red. masses --      1.0869                 1.0869                 1.0731
 Frc consts  --      5.6995                 5.8367                 5.9827
 IR Inten    --     47.8825                30.4385                11.7999

                     40                     41                     42
                      A                      A                      A
 Frequencies --   3086.1446              3110.0065              3114.0764
 Red. masses --      1.0733                 1.0701                 1.0300
 Frc consts  --      6.0226                 6.0983                 5.8850
 IR Inten    --      7.7648                 7.4028                51.3319

                     43                     44                     45
                      A                      A                      A
 Frequencies --   3134.0314              3154.4706              3165.6157
 Red. masses --      1.0753                 1.0773                 1.0763
 Frc consts  --      6.2229                 6.3159                 6.3549
 IR Inten    --     11.1631                 0.5118                 1.9836

 - Thermochemistry -
 -------------------
 Temperature   298.150 Kelvin.  Pressure   1.00000 Atm.
 Atom     1 has atomic number  6 and mass  12.00000

 Molecular mass:   105.07043 amu.
 Principal axes and moments of inertia in atomic units:
                           1         2         3
     Eigenvalues --   487.97764 940.504591416.81610
           X            1.00000  -0.00080  -0.00001
           Y            0.00080   1.00000   0.00000
           Z            0.00001  -0.00000   1.00000
 This molecule is an asymmetric top.
 Rotational symmetry number  1.
 Warning -- assumption of classical behavior for rotation
           may cause significant error
 Rotational temperatures (Kelvin)      0.17750     0.09209     0.06113
 Rotational constants (GHZ):           3.69841     1.91891     1.27380
 Zero-point vibrational energy     377433.3 (Joules/Mol)
                                   90.20872 (Kcal/Mol)
 Warning -- explicit consideration of   9 degrees of freedom as
           vibrations may cause significant error
 Vibrational temperatures:     67.17    93.19   362.70   377.85   535.47
          (Kelvin)            590.24   674.69   707.76   721.73   901.76
                             1018.70  1083.23  1153.68  1210.60  1320.77
                             1359.49  1374.03  1394.66  1427.34  1546.95
                             1560.14  1603.76  1697.92  1848.99  1869.87
                             1880.84  1971.13  1986.01  2005.86  2017.32
                             2090.43  2175.75  2246.19  2382.97  2681.64
                             2789.23  4292.26  4343.72  4425.86  4440.27
                             4474.61  4480.46  4509.17  4538.58  4554.61

 Zero-point correction=                           0.143757 (Hartree/Particle)
 Thermal correction to Energy=                    0.151419
 Thermal correction to Enthalpy=                  0.152363
 Thermal correction to Gibbs Free Energy=         0.111094
 Sum of electronic and zero-point Energies=              0.192750
 Sum of electronic and thermal Energies=                 0.200413
 Sum of electronic and thermal Enthalpies=               0.201357
 Sum of electronic and thermal Free Energies=            0.160087

                     E (Thermal)             CV                S
                      KCal/Mol        Cal/Mol-Kelvin    Cal/Mol-Kelvin
 Total                   95.017             28.394             86.859
 Electronic               0.000              0.000              0.000
 Translational            0.889              2.981             39.865
 Rotational               0.889              2.981             27.966
 Vibrational             93.239             22.432             19.028
 Vibration     1          0.595              1.979              4.953
 Vibration     2          0.597              1.971              4.306
 Vibration     3          0.664              1.759              1.716
 Vibration     4          0.670              1.741              1.644
 Vibration     5          0.744              1.529              1.071
 Vibration     6          0.774              1.448              0.926
 Vibration     7          0.826              1.319              0.741
 Vibration     8          0.848              1.268              0.679
 Vibration     9          0.857              1.246              0.654

                           ! Non-Optimized Parameters !
 Normal termination of Gaussian 16 at Thu Jun 12 22:46:04 2025.
