 Gaussian 16, Revision B.01,
 Gaussian 16:  EM64L-G16RevB.01 20-Dec-2017

 -----------------------------------------
 # opt freq am1 pop=full geom=connectivity
 -----------------------------------------

 ------------
 Optimisation
 ------------
 Symbolic Z-matrix:
 Charge = -1 Multiplicity = 1

 SCF Done:  E(RAM1) =  0.497692417867E-01 A.U. after   14 cycles
 SCF Done:  E(RAM1) =  0.428143801675E-01 A.U. after   13 cycles
 SCF Done:  E(RAM1) =  0.420924394960E-01 A.U. after   13 cycles
 SCF Done:  E(RAM1) =  0.418184750040E-01 A.U. after   12 cycles
 SCF Done:  E(RAM1) =  0.417029593955E-01 A.U. after   12 cycles
 SCF Done:  E(RAM1) =  0.416822796248E-01 A.U. after   11 cycles
 SCF Done:  E(RAM1) =  0.416796306797E-01 A.U. after   11 cycles
 SCF Done:  E(RAM1) =  0.416790031801E-01 A.U. after    9 cycles
 SCF Done:  E(RAM1) =  0.416789306391E-01 A.U. after   10 cycles
 Optimization completed.
    -- Stationary point found.
 Normal termination of Gaussian 16 at Thu Jun 12 22:56:54 2025.

 -------------------------------------------------------------
 #N Geom=AllCheck Guess=TCheck SCRF=Check GenChk RAM1/ZDO Freq
 -------------------------------------------------------------

 Structure from the checkpoint file:  "cycloheptatrienyl_anion_isomer_opt.chk"
 ------------
 Optimisation
 ------------
 Charge = -1 Multiplicity = 1

                         Standard orientation:
 ---------------------------------------------------------------------
 Center     Atomic      Atomic             Coordinates (Angstroms)
 Number     Number       Type             X           Y           Z
 ---------------------------------------------------------------------
      1          6           0       -0.502735    1.348101    0.113576
      2          6           0        0.862444    1.506791    0.127725
      3          6           0        1.875158    0.581527   -0.067812
      4          6           0       -1.229829    0.121499    0.047977
      5          6           0        1.710472   -0.792876   -0.326776
      6          6           0       -0.586470   -1.106354    0.624920
      7          6           0        0.613615   -1.555213   -0.102662
      8          1           0       -1.121473    2.258566    0.147568
      9          1           0        1.210706    2.553929    0.258943
     10          1           0        2.907670    0.961454   -0.088925
     11          1           0        2.592495   -1.295734   -0.772111
     12          1           0        0.593490   -2.596251   -0.453977
     13          6           0       -2.489143    0.047411   -0.438882
     14          1           0       -3.070128   -0.878732   -0.426533
     15          1           0       -2.988868    0.909942   -0.887863
     16          1           0       -0.308710   -0.873911    1.692644
     17          1           0       -1.336260   -1.944580    0.661862
 ---------------------------------------------------------------------

 SCF Done:  E(RAM1) =  0.416789306392E-01 A.U. after    2 cycles

 The electronic state is 1-A.
 Alpha  occ. eigenvalues --   -1.23136  -1.06790  -1.02012  -0.85407  -0.76352
 Alpha  occ. eigenvalues --   -0.66414  -0.51140  -0.48079  -0.45126  -0.38695
 Alpha  occ. eigenvalues --   -0.35968  -0.34466  -0.33134  -0.29700  -0.27229
 Alpha  occ. eigenvalues --   -0.26417  -0.25556  -0.24091  -0.20124  -0.15705
 Alpha  occ. eigenvalues --   -0.06896
 Alpha virt. eigenvalues --    0.20119   0.23896   0.28352   0.31348   0.32128
 Alpha virt. eigenvalues --    0.32831   0.33165   0.33754   0.34268   0.34656
 Alpha virt. eigenvalues --    0.35285   0.36313   0.36755   0.37671   0.38621

 Mulliken charges:
               1
     1  C   -0.396773
     2  C    0.018661
     3  C   -0.416201
     4  C    0.064871
     5  C   -0.022619
     6  C   -0.047558
     7  C   -0.336161
     8  H    0.076358
     9  H    0.049037
    10  H    0.067009
    11  H    0.053536
    12  H    0.071166
    13  C   -0.413509
    14  H    0.069631
    15  H    0.075582
    16  H    0.052960
    17  H    0.034009
 Sum of Mulliken charges =  -1.00000

 Dipole moment (field-independent basis, Debye):
    X=              0.0539    Y=             -0.7930    Z=              0.4834  Tot=              0.9303
 N-N= 1.928878009037D+02 E-N=-2.999920956391D+02  KE=-6.525141780920D+01
 Orbital energies and kinetic energies (alpha):
                                 1                 2
   1         O                -1.231360         -2.423646
   2         O                -1.067902         -2.247901
   3         O                -1.020122         -2.176921
   4         O                -0.854072         -1.958724
   5         O                -0.763521         -1.869752
   6         O                -0.664142         -1.740776
   7         O                -0.511404         -1.521961

  Exact polarizability: 140.335  -3.177  94.775   4.706   2.163  28.173
 Approx polarizability:  98.037   4.659  66.422   2.258   3.010  19.355

                      1                      2                      3
                      A                      A                      A
 Frequencies --    112.6398               156.1577               344.9054
 Red. masses --      3.1952                 2.1784                 2.7307
 Frc consts  --      0.0239                 0.0313                 0.1914
 IR Inten    --      3.3543                 3.6312                 6.5838

                      4                      5                      6
                      A                      A                      A
 Frequencies --    366.8109               415.8050               430.0309
 Red. masses --      2.6637                 4.4814                 2.2663
 Frc consts  --      0.2112                 0.4565                 0.2469
 IR Inten    --      2.1276                 1.0285                 0.5163

                      7                      8                      9
                      A                      A                      A
 Frequencies --    516.8857               560.1923               585.6359
 Red. masses --      2.2172                 2.3746                 1.1217
 Frc consts  --      0.3490                 0.4391                 0.2267
 IR Inten    --     17.1144                11.4281                 0.3595

                     10                     11                     12
                      A                      A                      A
 Frequencies --    706.6004               719.9281               795.3104
 Red. masses --      1.5792                 1.2725                 1.6511
 Frc consts  --      0.4645                 0.3886                 0.6153
 IR Inten    --     19.7447                86.3395                36.5251

                     13                     14                     15
                      A                      A                      A
 Frequencies --    808.5420               886.4554               939.5197
 Red. masses --      2.2383                 4.0389                 1.3928
 Frc consts  --      0.8621                 1.8699                 0.7244
 IR Inten    --      0.9555                 1.5526                78.3025

                     16                     17                     18
                      A                      A                      A
 Frequencies --    952.3404               957.7352               985.5750
 Red. masses --      1.5589                 1.5352                 1.8897
 Frc consts  --      0.8330                 0.8297                 1.0815
 IR Inten    --     25.8752                45.1281                 3.2203

                     19                     20                     21
                      A                      A                      A
 Frequencies --   1013.6239              1036.4048              1115.9474
 Red. masses --      1.9130                 2.7369                 1.8476
 Frc consts  --      1.1580                 1.7321                 1.3556
 IR Inten    --      4.7160                 1.6514                 2.0781

                     22                     23                     24
                      A                      A                      A
 Frequencies --   1153.8744              1180.6827              1252.5283
 Red. masses --      1.4239                 1.2190                 1.1089
 Frc consts  --      1.1170                 1.0012                 1.0250
 IR Inten    --      5.7555                 2.7511                 1.9221

                     25                     26                     27
                      A                      A                      A
 Frequencies --   1273.5439              1285.9310              1355.3833
 Red. masses --      1.0686                 1.0476                 1.2332
 Frc consts  --      1.0211                 1.0206                 1.3348
 IR Inten    --      1.3549                15.9355                 0.3357

                     28                     29                     30
                      A                      A                      A
 Frequencies --   1397.4940              1403.1297              1450.8272
 Red. masses --      1.1263                 1.3500                 1.5260
 Frc consts  --      1.2960                 1.5660                 1.8925
 IR Inten    --      5.8456                 7.5727                 3.4655

                     31                     32                     33
                      A                      A                      A
 Frequencies --   1454.2332              1536.2674              1670.4082
 Red. masses --      2.3178                 4.5349                 7.6802
 Frc consts  --      2.8880                 6.3059                12.6261
 IR Inten    --     12.4714               144.1758               151.2544

                     34                     35                     36
                      A                      A                      A
 Frequencies --   1729.8861              1819.7206              1847.1525
 Red. masses --      9.3297                 9.2349                10.0236
 Frc consts  --     16.4495                18.0174                20.1501
 IR Inten    --   1509.2434                80.7778               279.9325

                     37                     38                     39
                      A                      A                      A
 Frequencies --   2975.8398              3053.9359              3095.3690
 Red. masses --      1.0883                 1.0483                 1.0726
 Frc consts  --      5.6781                 5.7606                 6.0549
 IR Inten    --      5.3392                12.2392                 8.8083

                     40                     41                     42
                      A                      A                      A
 Frequencies --   3112.1984              3163.1638              3170.2772
 Red. masses --      1.0731                 1.0737                 1.0756
 Frc consts  --      6.1240                 6.3298                 6.3695
 IR Inten    --     11.8418                 1.9979                 0.3100

                     43                     44                     45
                      A                      A                      A
 Frequencies --   3178.5404              3194.0035              3236.1512
 Red. masses --      1.0785                 1.1039                 1.0498
 Frc consts  --      6.4197                 6.6351                 6.4778
 IR Inten    --      2.6006                 2.1823                23.7089

 - Thermochemistry -
 -------------------
 Temperature   298.150 Kelvin.  Pressure   1.00000 Atm.
 Atom     1 has atomic number  6 and mass  12.00000

 Molecular mass:   105.07043 amu.
 Principal axes and moments of inertia in atomic units:
                           1         2         3
     Eigenvalues --   521.10156 868.650381289.39549
           X            0.99991   0.01340   0.00079
           Y           -0.01340   0.99991  -0.00094
           Z           -0.00080   0.00093   1.00000
 This molecule is an asymmetric top.
 Rotational symmetry number  1.
 Warning -- assumption of classical behavior for rotation
           may cause significant error
 Rotational temperatures (Kelvin)      0.16621     0.09971     0.06717
 Rotational constants (GHZ):           3.46332     2.07764     1.39968
 Zero-point vibrational energy     385183.1 (Joules/Mol)
                                   92.06097 (Kcal/Mol)
 Warning -- explicit consideration of   9 degrees of freedom as
           vibrations may cause significant error
 Vibrational temperatures:    162.06   224.68   496.24   527.76   598.25
          (Kelvin)            618.72   743.68   805.99   842.60  1016.64
                             1035.82  1144.27  1163.31  1275.41  1351.76
                             1370.21  1377.97  1418.02  1458.38  1491.16
                             1605.60  1660.17  1698.74  1802.11  1832.35
                             1850.17  1950.09  2010.68  2018.79  2087.42
                             2092.32  2210.35  2403.34  2488.92  2618.17
                             2657.64  4281.57  4393.93  4453.55  4477.76
                             4551.09  4561.32  4573.21  4595.46  4656.10

 Zero-point correction=                           0.146708 (Hartree/Particle)
 Thermal correction to Energy=                    0.153547
 Thermal correction to Enthalpy=                  0.154491
 Thermal correction to Gibbs Free Energy=         0.115855
 Sum of electronic and zero-point Energies=              0.188387
 Sum of electronic and thermal Energies=                 0.195226
 Sum of electronic and thermal Enthalpies=               0.196170
 Sum of electronic and thermal Free Energies=            0.157534

                     E (Thermal)             CV                S
                      KCal/Mol        Cal/Mol-Kelvin    Cal/Mol-Kelvin
 Total                   96.352             26.887             81.316
 Electronic               0.000              0.000              0.000
 Translational            0.889              2.981             39.865
 Rotational               0.889              2.981             27.859
 Vibrational             94.575             20.925             13.592
 Vibration     1          0.607              1.939              3.223
 Vibration     2          0.620              1.896              2.596
 Vibration     3          0.723              1.586              1.189
 Vibration     4          0.740              1.541              1.093
 Vibration     5          0.779              1.436              0.906
 Vibration     6          0.791              1.405              0.859
 Vibration     7          0.872              1.213              0.617
 Vibration     8          0.916              1.117              0.523
 Vibration     9          0.943              1.062              0.475

 Optimization completed.
    -- Stationary point found.
 Normal termination of Gaussian 16 at Thu Jun 12 22:56:55 2025.
