 Gaussian 16, Revision B.01,
 Gaussian 16:  EM64L-G16RevB.01 20-Dec-2017

 --------------------------------------
 # hf/3-21g* pop=full geom=connectivity
 --------------------------------------

 ------------
 Optimisation
 ------------
 Symbolic Z-matrix:
 Charge =  1 Multiplicity = 1

                         Standard orientation:
 ---------------------------------------------------------------------
 Center     Atomic      Atomic             Coordinates (Angstroms)
 Number     Number       Type             X           Y           Z
 ---------------------------------------------------------------------
      1          6           0       -0.537674   -1.242745   -0.000009
      2          6           0        0.810389   -1.556906    0.000024
      3          6           0        1.911356   -0.701601   -0.000159
      4          6           0       -1.160377    0.012326   -0.000188
      5          6           0        1.920004    0.682943   -0.000055
      6          6           0       -0.523251    1.257926   -0.000094
      7          6           0        0.830570    1.552190    0.000044
      8          1           0       -1.232238   -2.116081    0.000122
      9          1           0        1.051308   -2.646102    0.000169
     10          1           0        2.909280   -1.198307   -0.000359
     11          1           0        2.924262    1.166740   -0.000038
     12          1           0       -1.200568    2.144560   -0.000100
     13          1           0        1.086139    2.638174    0.000192
     14          6           0       -2.650590    0.003532    0.000112
     15          1           0       -3.030763   -0.546355   -0.900066
     16          1           0       -3.029327   -0.524077    0.914247
     17          1           0       -3.080655    1.035454   -0.012217
 ---------------------------------------------------------------------

 SCF Done:  E(RHF) =  -306.208566223     A.U. after   13 cycles

 The electronic state is 1-A.
 Alpha  occ. eigenvalues --  -11.42019 -11.41038 -11.40965 -11.40756 -11.40606
 Alpha  occ. eigenvalues --  -11.40517 -11.40387 -11.33875  -1.35726  -1.27810
 Alpha  occ. eigenvalues --   -1.25946  -1.15074  -1.09973  -1.04845  -0.93504
 Alpha  occ. eigenvalues --   -0.92180  -0.89245  -0.82009  -0.79817  -0.75383
 Alpha  occ. eigenvalues --   -0.74655  -0.73873  -0.69157  -0.68801  -0.68433
 Alpha  occ. eigenvalues --   -0.68021  -0.57181  -0.55269
 Alpha virt. eigenvalues --   -0.14318  -0.13912   0.05193   0.10346   0.11255
 Alpha virt. eigenvalues --    0.11903   0.13343   0.15425   0.16900   0.20172
 Alpha virt. eigenvalues --    0.20886   0.21663   0.21864   0.25125   0.28261

 Mulliken charges:
               1
     1  C   -0.162795
     2  C   -0.183957
     3  C   -0.190221
     4  C   -0.050257
     5  C   -0.194190
     6  C   -0.170401
     7  C   -0.178545
     8  H    0.317628
     9  H    0.324225
    10  H    0.325568
    11  H    0.324889
    12  H    0.316610
    13  H    0.324882
    14  C   -0.601186
    15  H    0.271704
    16  H    0.272393
    17  H    0.253654
 Sum of Mulliken charges =   1.00000

 Dipole moment (field-independent basis, Debye):
    X=              1.0152    Y=             -0.0911    Z=              0.0033  Tot=              1.0193
 Quadrupole moment (field-independent basis, Debye-Ang):
   XX=            -25.5240   YY=            -30.1074   ZZ=            -50.7610
   XY=              0.2286   XZ=             -0.0085   YZ=             -0.0003

 Normal termination of Gaussian 16 at Thu Jun 12 22:36:22 2025.
