 Gaussian 16, Revision B.01,
 Gaussian 16:  EM64L-G16RevB.01 20-Dec-2017

 --------------------------------------
 # hf/3-21g* pop=full geom=connectivity
 --------------------------------------

 ------------
 Optimisation
 ------------
 Symbolic Z-matrix:
 Charge =  1 Multiplicity = 1

                         Standard orientation:
 ---------------------------------------------------------------------
 Center     Atomic      Atomic             Coordinates (Angstroms)
 Number     Number       Type             X           Y           Z
 ---------------------------------------------------------------------
      1          6           0       -0.523885    1.334084    0.109531
      2          6           0        0.836069    1.544336    0.152388
      3          6           0        1.852084    0.618542   -0.068868
      4          6           0       -1.223952    0.083460    0.048168
      5          6           0        1.736327   -0.762529   -0.333319
      6          6           0       -0.590189   -1.155665    0.581832
      7          6           0        0.660981   -1.556510   -0.089219
      8          1           0       -1.167675    2.243675    0.092901
      9          1           0        1.166271    2.596067    0.303801
     10          1           0        2.889186    1.027163   -0.099258
     11          1           0        2.646275   -1.242249   -0.755516
     12          1           0        0.733045   -2.634543   -0.346096
     13          6           0       -2.494095    0.052351   -0.424572
     14          1           0       -3.032933    0.962440   -0.735150
     15          1           0       -3.057672   -0.889213   -0.529105
     16          1           0       -0.366078   -1.005932    1.682414
     17          1           0       -1.330456   -2.005823    0.530363
 ---------------------------------------------------------------------

 SCF Done:  E(RHF) =  -306.156827107     A.U. after   15 cycles

 The electronic state is 1-A.
 Alpha  occ. eigenvalues --  -11.43264 -11.43073 -11.41071 -11.39351 -11.38251
 Alpha  occ. eigenvalues --  -11.36868 -11.36563 -11.36148  -1.34635  -1.27131
 Alpha  occ. eigenvalues --   -1.24839  -1.14707  -1.09614  -1.02291  -0.92189
 Alpha  occ. eigenvalues --   -0.90730  -0.87749  -0.81958  -0.80835  -0.78531
 Alpha  occ. eigenvalues --   -0.76257  -0.73034  -0.70313  -0.69248  -0.67178
 Alpha  occ. eigenvalues --   -0.63935  -0.57440  -0.50522
 Alpha virt. eigenvalues --   -0.18351  -0.04799   0.02614   0.06387   0.10545
 Alpha virt. eigenvalues --    0.11319   0.12414   0.15271   0.17060   0.18158
 Alpha virt. eigenvalues --    0.21003   0.21385   0.22240   0.26450   0.27703

 Mulliken charges:
               1
     1  C   -0.047850
     2  C   -0.313457
     3  C   -0.081499
     4  C   -0.137882
     5  C   -0.303333
     6  C   -0.529700
     7  C   -0.068425
     8  H    0.324957
     9  H    0.306674
    10  H    0.335605
    11  H    0.306940
    12  H    0.320282
    13  C   -0.271678
    14  H    0.286027
    15  H    0.290153
    16  H    0.302791
    17  H    0.280394
 Sum of Mulliken charges =   1.00000

 Dipole moment (field-independent basis, Debye):
    X=             -0.5222    Y=              0.2287    Z=             -0.2706  Tot=              0.6311
 Quadrupole moment (field-independent basis, Debye-Ang):
   XX=            -24.5001   YY=            -31.5391   ZZ=            -49.0154
   XY=              0.4571   XZ=              0.7486   YZ=              0.5169

 Normal termination of Gaussian 16 at Thu Jun 12 22:43:25 2025.
