 Gaussian 16, Revision B.01,
 Gaussian 16:  EM64L-G16RevB.01 20-Dec-2017

 --------------------------------------
 # hf/3-21g* pop=full geom=connectivity
 --------------------------------------

 -------------------
 Title Card Required
 -------------------
 Symbolic Z-matrix:
 Charge =  0 Multiplicity = 1

                         Standard orientation:
 ---------------------------------------------------------------------
 Center     Atomic      Atomic             Coordinates (Angstroms)
 Number     Number       Type             X           Y           Z
 ---------------------------------------------------------------------
      1          6           0        1.643182    1.097872    0.358766
      2          6           0        2.127737   -0.138042    0.170825
      3          6           0        1.495908   -1.225988   -0.545959
      4          6           0        0.460722    1.718137   -0.191933
      5          6           0        0.243756   -1.640562   -0.317597
      6          6           0       -0.811712    1.312102   -0.306629
      7          6           0       -0.643933   -1.018733    0.698524
      8          6           0       -1.461707    0.078689    0.101970
      9          1           0        2.257222    1.807802    0.949901
     10          1           0        3.119950   -0.391865    0.589965
     11          1           0        2.134148   -1.736012   -1.287907
     12          1           0        0.683312    2.741985   -0.564408
     13          1           0       -0.186282   -2.483908   -0.880045
     14          1           0       -1.517354    2.034757   -0.768678
     15          6           0       -2.788419   -0.067782   -0.049266
     16          1           0       -3.422820    0.714559   -0.484643
     17          1           0       -3.315268   -0.980876    0.254581
     18          1           0       -0.030607   -0.594368    1.542110
     19          1           0       -1.315511   -1.806234    1.136922
 ---------------------------------------------------------------------

 SCF Done:  E(RHF) =  -344.618068501     A.U. after   14 cycles

 The electronic state is 1-A.
 Alpha  occ. eigenvalues --  -11.18905 -11.18441 -11.18381 -11.18311 -11.18267
 Alpha  occ. eigenvalues --  -11.18077 -11.17461 -11.17366 -11.16592  -1.13959
 Alpha  occ. eigenvalues --   -1.08008  -1.06068  -0.97492  -0.93322  -0.85706
 Alpha  occ. eigenvalues --   -0.77729  -0.74586  -0.68536  -0.66001  -0.63715
 Alpha  occ. eigenvalues --   -0.62035  -0.61300  -0.57130  -0.55681  -0.53124
 Alpha  occ. eigenvalues --   -0.49509  -0.49093  -0.47415  -0.42798  -0.39760
 Alpha  occ. eigenvalues --   -0.34986  -0.28821
 Alpha virt. eigenvalues --    0.10501   0.14872   0.23923   0.24836   0.27553
 Alpha virt. eigenvalues --    0.29314   0.29538   0.32611   0.33313   0.35118
 Alpha virt. eigenvalues --    0.36503   0.37217   0.37634   0.39587   0.43560

 Mulliken charges:
               1
     1  C   -0.233098
     2  C   -0.240880
     3  C   -0.237865
     4  C   -0.233009
     5  C   -0.168486
     6  C   -0.181021
     7  C   -0.518958
     8  C   -0.047017
     9  H    0.228387
    10  H    0.229673
    11  H    0.230257
    12  H    0.228204
    13  H    0.231820
    14  H    0.226259
    15  C   -0.389592
    16  H    0.203210
    17  H    0.204240
    18  H    0.248090
    19  H    0.219787
 Sum of Mulliken charges =  -0.00000

 Dipole moment (field-independent basis, Debye):
    X=              0.2142    Y=             -0.1221    Z=              0.0962  Tot=              0.2647
 Quadrupole moment (field-independent basis, Debye-Ang):
   XX=            -51.2840   YY=            -51.4971   ZZ=            -58.0693
   XY=              0.9844   XZ=              1.3660   YZ=             -0.1495

 Normal termination of Gaussian 16 at Thu Jun 12 23:38:25 2025.
