 Gaussian 16, Revision B.01,
 Gaussian 16:  EM64L-G16RevB.01 20-Dec-2017

 --------------------------------------
 # hf/3-21g* pop=full geom=connectivity
 --------------------------------------

 -------------------
 Title Card Required
 -------------------
 Symbolic Z-matrix:
 Charge =  0 Multiplicity = 1

                         Standard orientation:
 ---------------------------------------------------------------------
 Center     Atomic      Atomic             Coordinates (Angstroms)
 Number     Number       Type             X           Y           Z
 ---------------------------------------------------------------------
      1          6           0       -1.303423   -1.336388    0.506094
      2          6           0       -1.955906   -0.176322    0.644632
      3          6           0       -1.801333    0.995309   -0.198930
      4          6           0       -0.321119   -1.646221   -0.517680
      5          6           0       -0.660516    1.650513   -0.443755
      6          6           0        0.817668   -0.986191   -0.754583
      7          6           0        0.649777    1.339854    0.096637
      8          6           0        1.314008    0.178989   -0.028333
      9          1           0       -1.526261   -2.177302    1.188160
     10          1           0       -2.715510   -0.064957    1.439991
     11          1           0       -2.747634    1.362544   -0.637344
     12          1           0       -0.568342   -2.539973   -1.120531
     13          1           0       -0.677238    2.552550   -1.083829
     14          1           0        1.500821   -1.341021   -1.548244
     15          1           0        1.123291    2.184949    0.630804
     16          6           0        2.677458    0.007408    0.540479
     17          1           0        2.686611   -0.851136    1.257466
     18          1           0        3.409753   -0.211522   -0.276376
     19          1           0        3.014821    0.924158    1.082532
 ---------------------------------------------------------------------

 SCF Done:  E(RHF) =  -344.618949650     A.U. after   14 cycles

 The electronic state is 1-A.
 Alpha  occ. eigenvalues --  -11.18458 -11.17993 -11.17898 -11.17878 -11.17841
 Alpha  occ. eigenvalues --  -11.17700 -11.17602 -11.17153 -11.16914  -1.13644
 Alpha  occ. eigenvalues --   -1.07535  -1.05606  -0.97485  -0.92429  -0.86779
 Alpha  occ. eigenvalues --   -0.77431  -0.75567  -0.67746  -0.63681  -0.62499
 Alpha  occ. eigenvalues --   -0.62203  -0.60917  -0.58939  -0.55686  -0.53795
 Alpha  occ. eigenvalues --   -0.50658  -0.49478  -0.46365  -0.41957  -0.36543
 Alpha  occ. eigenvalues --   -0.35703  -0.29725
 Alpha virt. eigenvalues --    0.11007   0.18702   0.19017   0.25874   0.27292
 Alpha virt. eigenvalues --    0.29552   0.30532   0.32524   0.32772   0.34988
 Alpha virt. eigenvalues --    0.36473   0.36718   0.38009   0.38626   0.42483

 Mulliken charges:
               1
     1  C   -0.233609
     2  C   -0.225995
     3  C   -0.234088
     4  C   -0.225466
     5  C   -0.220687
     6  C   -0.195947
     7  C   -0.224481
     8  C   -0.077339
     9  H    0.228529
    10  H    0.228673
    11  H    0.227165
    12  H    0.228790
    13  H    0.226147
    14  H    0.226920
    15  H    0.221725
    16  C   -0.570860
    17  H    0.214528
    18  H    0.201448
    19  H    0.204548
 Sum of Mulliken charges =  -0.00000

 Dipole moment (field-independent basis, Debye):
    X=              0.2154    Y=             -0.1472    Z=              0.0478  Tot=              0.2653
 Quadrupole moment (field-independent basis, Debye-Ang):
   XX=            -51.7881   YY=            -51.8152   ZZ=            -56.2330
   XY=              0.0558   XZ=             -1.0447   YZ=             -0.0041

 Normal termination of Gaussian 16 at Thu Jun 12 23:34:02 2025.
