 Gaussian 16, Revision B.01,
 Gaussian 16:  EM64L-G16RevB.01 20-Dec-2017

 -----------------------------------------------
 # opt freq uhf/3-21g pop=full geom=connectivity
 -----------------------------------------------

 -------------------
 Title Card Required
 -------------------
 Symbolic Z-matrix:
 Charge = -1 Multiplicity = 2

 SCF Done:  E(UHF) =  -242.271022265     A.U. after   12 cycles
 SCF Done:  E(UHF) =  -242.273649459     A.U. after   13 cycles
 SCF Done:  E(UHF) =  -242.274119834     A.U. after   10 cycles
 SCF Done:  E(UHF) =  -242.274122847     A.U. after    9 cycles
 Optimization completed.
    -- Stationary point found.
 Normal termination of Gaussian 16 at Sat Jun 14 16:40:38 2025.

 --------------------------------------------------------------
 #N Geom=AllCheck Guess=TCheck SCRF=Check GenChk UHF/3-21G Freq
 --------------------------------------------------------------

 Structure from the checkpoint file:  "AlH3_planar_ion_opt.chk"
 -------------------
 Title Card Required
 -------------------
 Charge = -1 Multiplicity = 2

                         Standard orientation:
 ---------------------------------------------------------------------
 Center     Atomic      Atomic             Coordinates (Angstroms)
 Number     Number       Type             X           Y           Z
 ---------------------------------------------------------------------
      1         13           0        0.000000    0.000000    0.095651
      2          1           0       -0.000000    1.577480   -0.414486
      3          1           0        1.366138   -0.788740   -0.414486
      4          1           0       -1.366138   -0.788740   -0.414486
 ---------------------------------------------------------------------

 SCF Done:  E(UHF) =  -242.274122847     A.U. after    1 cycles

 The electronic state is 2-A1.
 Alpha  occ. eigenvalues --  -57.80703  -4.61797  -2.92512  -2.92010  -2.92010
 Alpha  occ. eigenvalues --   -0.34950  -0.18781  -0.18781  -0.03127
 Alpha virt. eigenvalues --    0.34774   0.34774   0.42381   0.49599   0.58484
 Alpha virt. eigenvalues --    0.59634   0.59634   1.58538   1.58799   1.58799
  Beta  occ. eigenvalues --  -57.80377  -4.61225  -2.91738  -2.91738  -2.91274
  Beta  occ. eigenvalues --   -0.31863  -0.18508  -0.18508
  Beta virt. eigenvalues --    0.26163   0.36819   0.36819   0.44529   0.52599
  Beta virt. eigenvalues --    0.61485   0.61485   0.62949   1.58556   1.58778
  Beta virt. eigenvalues --    1.58778

 Mulliken charges and spin densities:
               1          2
     1  Al  -0.011683   1.118559
     2  H   -0.329439  -0.039520
     3  H   -0.329439  -0.039520
     4  H   -0.329439  -0.039520
 Sum of Mulliken charges =  -1.00000   1.00000

 Dipole moment (field-independent basis, Debye):
    X=              0.0000    Y=              0.0000    Z=              0.4576  Tot=              0.4576
 Quadrupole moment (field-independent basis, Debye-Ang):
   XX=            -25.7902   YY=            -25.7902   ZZ=            -23.6768
   XY=              0.0000   XZ=             -0.0000   YZ=             -0.0000

  Exact polarizability:  33.994  -0.000  33.994  -0.000   0.000  27.591
 Approx polarizability:  24.503  -0.000  24.503  -0.000   0.000  18.343

                      1                      2                      3
                     A1                      E                      E
 Frequencies --    694.5180               800.5548               800.5548
 Red. masses --      1.1080                 1.0477                 1.0477
 Frc consts  --      0.3149                 0.3956                 0.3956
 IR Inten    --    434.9567               233.4401               233.4401
 Raman Activ --     35.0513                29.4511                29.4511

                      4                      5                      6
                      E                      E                     A1
 Frequencies --   1717.8454              1717.8454              1758.6762
 Red. masses --      1.0537                 1.0537                 1.0145
 Frc consts  --      1.8321                 1.8321                 1.8488
 IR Inten    --    540.4737               540.4738                75.2734
 Raman Activ --     78.2522                78.2522               132.3077

 - Thermochemistry -
 -------------------
 Temperature   298.150 Kelvin.  Pressure   1.00000 Atm.
 Atom     1 has atomic number 13 and mass  26.98154

 Molecular mass:    30.00502 amu.
 Principal axes and moments of inertia in atomic units:
                           1         2         3
     Eigenvalues --    15.96057  15.96057  26.86779
           X            0.24254   0.97014   0.00000
           Y            0.97014  -0.24254   0.00000
           Z            0.00000   0.00000   1.00000
 This molecule is an oblate symmetric top.
 Rotational symmetry number  3.
 Rotational temperatures (Kelvin)      5.42674     5.42674     3.22371
 Rotational constants (GHZ):         113.07498   113.07498    67.17117
 Zero-point vibrational energy      44800.1 (Joules/Mol)
                                   10.70748 (Kcal/Mol)
 Vibrational temperatures:    999.26  1151.82  1151.82  2471.60  2471.60
          (Kelvin)           2530.34

 Zero-point correction=                           0.017063 (Hartree/Particle)
 Thermal correction to Energy=                    0.020173
 Thermal correction to Enthalpy=                  0.021117
 Thermal correction to Gibbs Free Energy=        -0.003894
 Sum of electronic and zero-point Energies=           -242.257059
 Sum of electronic and thermal Energies=              -242.253950
 Sum of electronic and thermal Enthalpies=            -242.253006
 Sum of electronic and thermal Free Energies=         -242.278017

                     E (Thermal)             CV                S
                      KCal/Mol        Cal/Mol-Kelvin    Cal/Mol-Kelvin
 Total                   12.659              8.199             52.641
 Electronic               0.000              0.000              1.377
 Translational            0.889              2.981             36.130
 Rotational               0.889              2.981             14.394
 Vibrational             10.881              2.238              0.740

 Optimization completed.
    -- Stationary point found.
 Normal termination of Gaussian 16 at Sat Jun 14 16:40:38 2025.
