 Gaussian 16, Revision B.01,
 Gaussian 16:  EM64L-G16RevB.01 20-Dec-2017

 ---------------------------
 # opt am1 geom=connectivity
 ---------------------------

 -------------------------------------------------
 Methyl_Napthalene Optimisation AM1 semi-emperical
 -------------------------------------------------
 Symbolic Z-matrix:
 Charge =  0 Multiplicity = 1

 SCF Done:  E(RAM1) =  0.707872076075E-01 A.U. after   16 cycles
 SCF Done:  E(RAM1) =  0.553143592145E-01 A.U. after   14 cycles
 SCF Done:  E(RAM1) =  0.540273285054E-01 A.U. after   13 cycles
 SCF Done:  E(RAM1) =  0.538767280257E-01 A.U. after   12 cycles
 SCF Done:  E(RAM1) =  0.538661132088E-01 A.U. after   10 cycles
 SCF Done:  E(RAM1) =  0.538650711861E-01 A.U. after   11 cycles
 Optimization completed.
    -- Stationary point found.

                         Standard orientation:
 ---------------------------------------------------------------------
 Center     Atomic      Atomic             Coordinates (Angstroms)
 Number     Number       Type             X           Y           Z
 ---------------------------------------------------------------------
      1          6           0        0.006475    0.414342    0.000058
      2          6           0        0.987101    1.444964   -0.000053
      3          6           0        0.440523   -0.937083    0.000058
      4          6           0        2.326581    1.142569   -0.000090
      5          1           0        0.655055    2.494352   -0.000083
      6          6           0       -1.394951    0.695578    0.000058
      7          6           0       -0.522881   -1.982574    0.000091
      8          6           0        1.833843   -1.222508    0.000044
      9          6           0        2.756177   -0.205900    0.000005
     10          1           0        3.080769    1.943257   -0.000193
     11          6           0       -1.867668    2.100262    0.000063
     12          6           0       -2.299993   -0.344674   -0.000039
     13          6           0       -1.863185   -1.689335   -0.000094
     14          1           0       -0.171117   -3.024960   -0.000027
     15          1           0        2.154490   -2.275188    0.000086
     16          1           0        3.834004   -0.424553   -0.000025
     17          1           0       -2.984340    2.151093    0.000167
     18          1           0       -1.492790    2.637484   -0.907111
     19          1           0       -1.492600    2.637500    0.907139
     20          1           0       -3.381383   -0.139717   -0.000244
     21          1           0       -2.614219   -2.493109   -0.000324
 ---------------------------------------------------------------------

 The electronic state is 1-A.
 Alpha  occ. eigenvalues --   -1.49132  -1.35580  -1.25900  -1.13376  -1.12345
 Alpha  occ. eigenvalues --   -1.00729  -0.87856  -0.86653  -0.78720  -0.67296
 Alpha  occ. eigenvalues --   -0.64355  -0.61976  -0.56220  -0.55303  -0.54355
 Alpha  occ. eigenvalues --   -0.52746  -0.51784  -0.49820  -0.49419  -0.47425
 Alpha  occ. eigenvalues --   -0.46367  -0.43690  -0.43192  -0.42395  -0.38225
 Alpha  occ. eigenvalues --   -0.34234  -0.31546
 Alpha virt. eigenvalues --   -0.00980   0.00804   0.04414   0.07843   0.11974
 Alpha virt. eigenvalues --    0.13718   0.13920   0.14348   0.14689   0.15158
 Alpha virt. eigenvalues --    0.15522   0.15752   0.16336   0.16548   0.16565

 Mulliken charges:
               1
     1  C   -0.032646
     2  C   -0.118746
     3  C   -0.034570
     4  C   -0.128604
     5  H    0.132468
     6  C   -0.056304
     7  C   -0.122407
     8  C   -0.118063
     9  C   -0.128146
    10  H    0.131093
    11  C   -0.181077
    12  C   -0.130647
    13  C   -0.123773
    14  H    0.131805
    15  H    0.131722
    16  H    0.131572
    17  H    0.081133
    18  H    0.086336
    19  H    0.086336
    20  H    0.131131
    21  H    0.131388
 Sum of Mulliken charges =  -0.00000

 Dipole moment (field-independent basis, Debye):
    X=             -0.0806    Y=              0.2621    Z=             -0.0005  Tot=              0.2742
 N-N= 2.994841056860D+02 E-N=-4.743331794454D+02  KE=-8.691450155478D+01
 1\1\GINC-IISERK51\FOpt\RAM1\ZDO\C11H10\GAUSSIAN\09-Jun-2025\0\\# opt a
 m1 geom=connectivity\\Methyl_Napthalene Optimisation AM1 semi-emperica
 l\\0,1\C,-0.0072411301,-0.4166820375,0.0054085269\C,-0.9856100138,-1.4
 494472011,0.0053762152\C,-0.4442422113,0.9337878057,0.0023210838\C,-2.
 3257460948,-1.1499858744,0.0024928622\H,-0.6512709008,-2.4981044814,0.
 007735424\C,1.3947941153,-0.6948485541,0.0083272791\C,0.5168727856,1.9
 813832568,0.0022198273\C,-1.8381803859,1.216161411,-0.0006039599\C,-2.
 7582887101,0.1975380476,-0.0004871014\H,-3.0781800909,-1.9523213752,0.
 0024645604\C,1.8705807236,-2.0984922068,0.0115791466\C,2.2975588476,0.

 Normal termination of Gaussian 16 at Mon Jun  9 19:37:45 2025.
