 Gaussian 16, Revision B.01,
 Gaussian 16:  EM64L-G16RevB.01 20-Dec-2017

 -------------------------------------
 # hf/3-21g pop=full geom=connectivity
 -------------------------------------

 ----------------
 BCl3 pyramid opt
 ----------------
 Symbolic Z-matrix:
 Charge =  0 Multiplicity = 1

                         Standard orientation:
 ---------------------------------------------------------------------
 Center     Atomic      Atomic             Coordinates (Angstroms)
 Number     Number       Type             X           Y           Z
 ---------------------------------------------------------------------
      1          5           0        0.000000   -0.000000    0.580095
      2         17           0       -0.000000    1.801614   -0.056872
      3         17           0        1.560244   -0.900807   -0.056872
      4         17           0       -1.560244   -0.900807   -0.056872
 ---------------------------------------------------------------------

 SCF Done:  E(RHF) =  -1396.46832106     A.U. after   11 cycles

 The electronic state is 1-A1.
 Alpha  occ. eigenvalues -- -104.14835-104.14835-104.14806 -10.54171 -10.54171
 Alpha  occ. eigenvalues --  -10.54079  -8.00447  -8.00447  -8.00427  -8.00088
 Alpha  occ. eigenvalues --   -8.00088  -8.00074  -8.00065  -8.00039  -8.00039
 Alpha  occ. eigenvalues --   -7.82563  -1.17414  -1.11831  -1.11831  -0.70512
 Alpha  occ. eigenvalues --   -0.58790  -0.58790  -0.54998  -0.49962  -0.49962
 Alpha  occ. eigenvalues --   -0.47966  -0.47966  -0.47233
 Alpha virt. eigenvalues --   -0.05092   0.16384   0.16700   0.16700   0.56087
 Alpha virt. eigenvalues --    0.56087   0.56624   0.64049   0.72820   0.72820
 Alpha virt. eigenvalues --    0.74956   0.74956   0.75256   0.81062   0.84533

 Mulliken charges:
               1
     1  B    0.311337
     2  Cl  -0.103779
     3  Cl  -0.103779
     4  Cl  -0.103779
 Sum of Mulliken charges =  -0.00000

 Dipole moment (field-independent basis, Debye):
    X=              0.0000    Y=              0.0000    Z=              2.0387  Tot=              2.0387
 Quadrupole moment (field-independent basis, Debye-Ang):
   XX=            -49.1449   YY=            -49.1449   ZZ=            -42.0723
   XY=              0.0000   XZ=             -0.0000   YZ=             -0.0000

 Normal termination of Gaussian 16 at Mon Jun 16 21:19:32 2025.
