 Gaussian 16, Revision B.01,
 Gaussian 16:  EM64L-G16RevB.01 20-Dec-2017

 -----------------------------------------
 # opt freq am1 pop=full geom=connectivity
 -----------------------------------------

 ------------
 Optimisation
 ------------
 Symbolic Z-matrix:
 Charge =  1 Multiplicity = 1

 SCF Done:  E(RAM1) =  0.330829641371     A.U. after   13 cycles
 SCF Done:  E(RAM1) =  0.320498571953     A.U. after   12 cycles
 SCF Done:  E(RAM1) =  0.320007865678     A.U. after   11 cycles
 SCF Done:  E(RAM1) =  0.319958435390     A.U. after   10 cycles
 Optimization completed.
    -- Stationary point found.
 Normal termination of Gaussian 16 at Thu Jun 12 22:34:44 2025.

 -------------------------------------------------------------
 #N Geom=AllCheck Guess=TCheck SCRF=Check GenChk RAM1/ZDO Freq
 -------------------------------------------------------------

 Structure from the checkpoint file:  "cycloheptatrienyl_cation_opt.chk"
 ------------
 Optimisation
 ------------
 Charge =  1 Multiplicity = 1

                         Standard orientation:
 ---------------------------------------------------------------------
 Center     Atomic      Atomic             Coordinates (Angstroms)
 Number     Number       Type             X           Y           Z
 ---------------------------------------------------------------------
      1          6           0       -0.537674   -1.242745   -0.000009
      2          6           0        0.810389   -1.556906    0.000024
      3          6           0        1.911356   -0.701601   -0.000159
      4          6           0       -1.160377    0.012326   -0.000188
      5          6           0        1.920004    0.682943   -0.000055
      6          6           0       -0.523251    1.257926   -0.000094
      7          6           0        0.830570    1.552190    0.000044
      8          1           0       -1.232238   -2.116081    0.000122
      9          1           0        1.051308   -2.646102    0.000169
     10          1           0        2.909280   -1.198307   -0.000359
     11          1           0        2.924262    1.166740   -0.000038
     12          1           0       -1.200568    2.144560   -0.000100
     13          1           0        1.086139    2.638174    0.000192
     14          6           0       -2.650590    0.003532    0.000112
     15          1           0       -3.030763   -0.546355   -0.900066
     16          1           0       -3.029327   -0.524077    0.914247
     17          1           0       -3.080655    1.035454   -0.012217
 ---------------------------------------------------------------------

 SCF Done:  E(RAM1) =  0.319958435391     A.U. after    2 cycles

 The electronic state is 1-A.
 Alpha  occ. eigenvalues --   -1.62690  -1.46346  -1.41870  -1.24129  -1.14499
 Alpha  occ. eigenvalues --   -1.07097  -0.88573  -0.87182  -0.82755  -0.74352
 Alpha  occ. eigenvalues --   -0.72434  -0.70753  -0.68346  -0.67498  -0.64829
 Alpha  occ. eigenvalues --   -0.62828  -0.62633  -0.62392  -0.57505  -0.55426
 Alpha virt. eigenvalues --   -0.22630  -0.22314  -0.10260  -0.09877  -0.04930
 Alpha virt. eigenvalues --   -0.04843  -0.04491  -0.04376  -0.03987  -0.03961
 Alpha virt. eigenvalues --   -0.03293  -0.00558  -0.00449   0.00278   0.01103

 Mulliken charges:
               1
     1  C   -0.069990
     2  C   -0.036018
     3  C   -0.048106
     4  C    0.054969
     5  C   -0.052537
     6  C   -0.068978
     7  C   -0.032718
     8  H    0.181440
     9  H    0.182769
    10  H    0.183758
    11  H    0.183789
    12  H    0.182123
    13  H    0.182672
    14  C   -0.234428
    15  H    0.134180
    16  H    0.134528
    17  H    0.122547
 Sum of Mulliken charges =   1.00000

 Dipole moment (field-independent basis, Debye):
    X=              1.1237    Y=             -0.0758    Z=              0.0036  Tot=              1.1263
 N-N= 1.909317895170D+02 E-N=-2.823312660571D+02  KE=-6.340964475327D+01
 Orbital energies and kinetic energies (alpha):
                                 1                 2
   1         O                -1.626904         -2.438369
   2         O                -1.463461         -2.254987
   3         O                -1.418701         -2.206018
   4         O                -1.241295         -1.978187
   5         O                -1.144992         -1.902885
   6         O                -1.070971         -1.785889
   7         O                -0.885734         -1.611122

  Exact polarizability: 109.714   0.887  93.341  -0.039  -0.000  18.623
 Approx polarizability:  90.400   0.715  82.106  -0.024  -0.000  13.414

 ******    1 imaginary frequencies (negative Signs) ******

                      1                      2                      3
                      A                      A                      A
 Frequencies --    -29.2196               115.8165               207.2394
 Red. masses --      1.0280                 2.9135                 2.5328
 Frc consts  --      0.0005                 0.0230                 0.0641
 IR Inten    --      1.1746                 0.0582                 0.0185

                      4                      5                      6
                      A                      A                      A
 Frequencies --    326.4792               381.1625               422.5806
 Red. masses --      2.4292                 2.9384                 6.2575
 Frc consts  --      0.1526                 0.2515                 0.6584
 IR Inten    --      3.6775                 0.0125                 0.0003

                      7                      8                      9
                      A                      A                      A
 Frequencies --    481.3169               502.3093               574.4541
 Red. masses --      5.6662                 1.8958                 1.8609
 Frc consts  --      0.7734                 0.2818                 0.3618
 IR Inten    --      0.0096                 0.0002                26.8631

                     10                     11                     12
                      A                      A                      A
 Frequencies --    768.7894               779.2943               877.2712
 Red. masses --      1.1957                 5.1558                 1.2284
 Frc consts  --      0.4164                 1.8448                 0.5570
 IR Inten    --    107.4725                 0.0631                 0.0507

                     13                     14                     15
                      A                      A                      A
 Frequencies --    885.1450               932.4741               996.9349
 Red. masses --      6.2879                 1.3341                 4.5200
 Frc consts  --      2.9026                 0.6835                 2.6468
 IR Inten    --      0.0358                 0.5339                 0.3260

                     16                     17                     18
                      A                      A                      A
 Frequencies --   1017.1025              1032.9787              1044.2544
 Red. masses --      1.4686                 1.5731                 1.3226
 Frc consts  --      0.8951                 0.9890                 0.8497
 IR Inten    --      0.0043                 0.3527                 3.4831

                     19                     20                     21
                      A                      A                      A
 Frequencies --   1051.5649              1078.6625              1119.0390
 Red. masses --      1.8242                 1.7359                 1.7957
 Frc consts  --      1.1885                 1.1900                 1.3249
 IR Inten    --      0.0162                13.6763                 3.1664

                     22                     23                     24
                      A                      A                      A
 Frequencies --   1168.8660              1274.0757              1280.7785
 Red. masses --      1.4011                 1.0467                 1.0571
 Frc consts  --      1.1278                 1.0011                 1.0217
 IR Inten    --      0.9637                 2.5678                 0.0525

                     25                     26                     27
                      A                      A                      A
 Frequencies --   1287.4430              1346.9239              1350.0895
 Red. masses --      1.1228                 1.1221                 1.6390
 Frc consts  --      1.0965                 1.1995                 1.7602
 IR Inten    --      0.6472                23.6832                 1.9826

                     28                     29                     30
                      A                      A                      A
 Frequencies --   1354.9494              1365.0308              1433.1723
 Red. masses --      1.4540                 1.0658                 1.2986
 Frc consts  --      1.5727                 1.1700                 1.5715
 IR Inten    --      0.3715                17.9234                25.7738

                     31                     32                     33
                      A                      A                      A
 Frequencies --   1492.4896              1541.4960              1635.3307
 Red. masses --      2.5413                 3.1596                10.5525
 Frc consts  --      3.3353                 4.4235                16.6271
 IR Inten    --     53.7959                99.9542                62.1345

                     34                     35                     36
                      A                      A                      A
 Frequencies --   1666.1330              1728.3589              1757.7488
 Red. masses --      9.8949                 9.2085                 8.6943
 Frc consts  --     16.1838                16.2072                15.8270
 IR Inten    --      0.6189                 1.1176                12.8099

                     37                     38                     39
                      A                      A                      A
 Frequencies --   3025.2304              3045.0227              3066.1042
 Red. masses --      1.0899                 1.0913                 1.0749
 Frc consts  --      5.8771                 5.9619                 5.9537
 IR Inten    --     39.9055                24.9988                 4.4105

                     40                     41                     42
                      A                      A                      A
 Frequencies --   3067.5917              3074.2365              3079.5786
 Red. masses --      1.0751                 1.0745                 1.0773
 Frc consts  --      5.9606                 5.9831                 6.0195
 IR Inten    --     27.9003                22.3555               137.2336

                     43                     44                     45
                      A                      A                      A
 Frequencies --   3083.9469              3095.9239              3136.4865
 Red. masses --      1.0793                 1.0835                 1.0294
 Frc consts  --      6.0478                 6.1185                 5.9665
 IR Inten    --    407.9822               143.4610                43.7029

 - Thermochemistry -
 -------------------
 Temperature   298.150 Kelvin.  Pressure   1.00000 Atm.
 Atom     1 has atomic number  6 and mass  12.00000

 Molecular mass:   105.07043 amu.
 Principal axes and moments of inertia in atomic units:
                           1         2         3
     Eigenvalues --   487.02758 940.966531416.14533
           X            1.00000   0.00076   0.00004
           Y           -0.00076   1.00000   0.00000
           Z           -0.00004  -0.00000   1.00000
 This molecule is an asymmetric top.
 Rotational symmetry number  1.
 Warning -- assumption of classical behavior for rotation
           may cause significant error
 Rotational temperatures (Kelvin)      0.17784     0.09205     0.06116
 Rotational constants (GHZ):           3.70562     1.91797     1.27440
    1 imaginary frequencies ignored.
 Zero-point vibrational energy     382517.2 (Joules/Mol)
                                   91.42380 (Kcal/Mol)
 Warning -- explicit consideration of   8 degrees of freedom as
           vibrations may cause significant error
 Vibrational temperatures:    166.63   298.17   469.73   548.41   608.00
          (Kelvin)            692.51   722.71   826.51  1106.12  1121.23
                             1262.20  1273.53  1341.62  1434.37  1463.38
                             1486.23  1502.45  1512.97  1551.95  1610.05
                             1681.74  1833.11  1842.75  1852.34  1937.92
                             1942.48  1949.47  1963.97  2062.02  2147.36
                             2217.87  2352.88  2397.19  2486.72  2529.01
                             4352.63  4381.11  4411.44  4413.58  4423.14
                             4430.83  4437.11  4454.34  4512.70

 Zero-point correction=                           0.145693 (Hartree/Particle)
 Thermal correction to Energy=                    0.152087
 Thermal correction to Enthalpy=                  0.153031
 Thermal correction to Gibbs Free Energy=         0.115104
 Sum of electronic and zero-point Energies=              0.465652
 Sum of electronic and thermal Energies=                 0.472045
 Sum of electronic and thermal Enthalpies=               0.472990
 Sum of electronic and thermal Free Energies=            0.435063

                     E (Thermal)             CV                S
                      KCal/Mol        Cal/Mol-Kelvin    Cal/Mol-Kelvin
 Total                   95.436             24.685             79.824
 Electronic               0.000              0.000              0.000
 Translational            0.889              2.981             39.865
 Rotational               0.889              2.981             27.964
 Vibrational             93.659             18.723             11.995
 Vibration     1          0.608              1.936              3.169
 Vibration     2          0.641              1.830              2.068
 Vibration     3          0.710              1.623              1.277
 Vibration     4          0.751              1.510              1.035
 Vibration     5          0.785              1.421              0.883
 Vibration     6          0.838              1.291              0.707
 Vibration     7          0.858              1.245              0.652
 Vibration     8          0.931              1.087              0.496

                           ! Non-Optimized Parameters !
 Normal termination of Gaussian 16 at Thu Jun 12 22:34:44 2025.
