 Gaussian 16, Revision B.01,
 Gaussian 16:  EM64L-G16RevB.01 20-Dec-2017

 -----------------------------------------
 # opt freq am1 pop=full geom=connectivity
 -----------------------------------------

 ------------
 Optimisation
 ------------
 Symbolic Z-matrix:
 Charge =  1 Multiplicity = 1

 SCF Done:  E(RAM1) =  0.372964588431     A.U. after   14 cycles
 SCF Done:  E(RAM1) =  0.361994574788     A.U. after   13 cycles
 SCF Done:  E(RAM1) =  0.361296338435     A.U. after   13 cycles
 SCF Done:  E(RAM1) =  0.361118388410     A.U. after   12 cycles
 SCF Done:  E(RAM1) =  0.361020391085     A.U. after   13 cycles
 SCF Done:  E(RAM1) =  0.361001883358     A.U. after   12 cycles
 SCF Done:  E(RAM1) =  0.360993141746     A.U. after   12 cycles
 SCF Done:  E(RAM1) =  0.360990120621     A.U. after   11 cycles
 SCF Done:  E(RAM1) =  0.360989080138     A.U. after   11 cycles
 SCF Done:  E(RAM1) =  0.360988529942     A.U. after   11 cycles
 SCF Done:  E(RAM1) =  0.360988362478     A.U. after   10 cycles
 SCF Done:  E(RAM1) =  0.360988312815     A.U. after   10 cycles
 Optimization completed.
    -- Stationary point found.
 Normal termination of Gaussian 16 at Thu Jun 12 22:42:11 2025.

 -------------------------------------------------------------
 #N Geom=AllCheck Guess=TCheck SCRF=Check GenChk RAM1/ZDO Freq
 -------------------------------------------------------------

 Structure from the checkpoint file:  "cycloheptatrienyl_cation_isomer_opt.chk"
 ------------
 Optimisation
 ------------
 Charge =  1 Multiplicity = 1

                         Standard orientation:
 ---------------------------------------------------------------------
 Center     Atomic      Atomic             Coordinates (Angstroms)
 Number     Number       Type             X           Y           Z
 ---------------------------------------------------------------------
      1          6           0       -0.523885    1.334084    0.109531
      2          6           0        0.836069    1.544336    0.152388
      3          6           0        1.852084    0.618542   -0.068868
      4          6           0       -1.223952    0.083460    0.048168
      5          6           0        1.736327   -0.762529   -0.333319
      6          6           0       -0.590189   -1.155665    0.581832
      7          6           0        0.660981   -1.556510   -0.089219
      8          1           0       -1.167675    2.243675    0.092901
      9          1           0        1.166271    2.596067    0.303801
     10          1           0        2.889186    1.027163   -0.099258
     11          1           0        2.646275   -1.242249   -0.755516
     12          1           0        0.733045   -2.634543   -0.346096
     13          6           0       -2.494095    0.052351   -0.424572
     14          1           0       -3.032933    0.962440   -0.735150
     15          1           0       -3.057672   -0.889213   -0.529105
     16          1           0       -0.366078   -1.005932    1.682414
     17          1           0       -1.330456   -2.005823    0.530363
 ---------------------------------------------------------------------

 SCF Done:  E(RAM1) =  0.360988312815     A.U. after    2 cycles

 The electronic state is 1-A.
 Alpha  occ. eigenvalues --   -1.61818  -1.45433  -1.40861  -1.23090  -1.14532
 Alpha  occ. eigenvalues --   -1.03730  -0.88256  -0.85888  -0.81786  -0.75140
 Alpha  occ. eigenvalues --   -0.73319  -0.71349  -0.69222  -0.67185  -0.63982
 Alpha  occ. eigenvalues --   -0.63551  -0.61733  -0.60996  -0.57314  -0.51711
 Alpha virt. eigenvalues --   -0.25021  -0.16572  -0.12625  -0.09633  -0.04762
 Alpha virt. eigenvalues --   -0.04491  -0.03900  -0.03633  -0.03377  -0.02640
 Alpha virt. eigenvalues --   -0.02237  -0.00937  -0.00435   0.00239   0.00287

 Mulliken charges:
               1
     1  C    0.143839
     2  C   -0.260020
     3  C    0.171124
     4  C   -0.187585
     5  C   -0.250294
     6  C   -0.150772
     7  C    0.063067
     8  H    0.170117
     9  H    0.183169
    10  H    0.177097
    11  H    0.183976
    12  H    0.172595
    13  C   -0.020302
    14  H    0.154029
    15  H    0.160661
    16  H    0.149294
    17  H    0.140005
 Sum of Mulliken charges =   1.00000

 Dipole moment (field-independent basis, Debye):
    X=             -0.2455    Y=              0.4241    Z=             -0.3401  Tot=              0.5965
 N-N= 1.923763841250D+02 E-N=-2.854560554517D+02  KE=-6.335684494464D+01
 Orbital energies and kinetic energies (alpha):
                                 1                 2
   1         O                -1.618182         -2.431470
   2         O                -1.454327         -2.260426
   3         O                -1.408609         -2.193215
   4         O                -1.230898         -1.986134
   5         O                -1.145320         -1.891106
   6         O                -1.037300         -1.770857
   7         O                -0.882563         -1.578563

  Exact polarizability: 137.009  -4.597  93.856   7.544   1.151  27.834
 Approx polarizability:  96.980   4.143  65.656   4.268   2.597  19.960

                      1                      2                      3
                      A                      A                      A
 Frequencies --     90.8680               127.0454               302.4867
 Red. masses --      3.0735                 2.1677                 2.5280
 Frc consts  --      0.0150                 0.0206                 0.1363
 IR Inten    --      3.6431                 7.8808                 6.6001

                      4                      5                      6
                      A                      A                      A
 Frequencies --    351.1166               414.3082               432.9085
 Red. masses --      2.6046                 3.9831                 2.3492
 Frc consts  --      0.1892                 0.4028                 0.2594
 IR Inten    --      3.8078                 4.8472                 4.4043

                      7                      8                      9
                      A                      A                      A
 Frequencies --    460.8198               530.8377               562.6220
 Red. masses --      2.2471                 2.6897                 1.0579
 Frc consts  --      0.2812                 0.4466                 0.1973
 IR Inten    --     15.1811                43.0281                22.4487

                     10                     11                     12
                      A                      A                      A
 Frequencies --    712.7313               770.5507               858.7678
 Red. masses --      2.2428                 1.2862                 1.9328
 Frc consts  --      0.6713                 0.4499                 0.8398
 IR Inten    --      1.3707                95.3378                11.6725

                     13                     14                     15
                      A                      A                      A
 Frequencies --    862.2568               957.2562               977.1083
 Red. masses --      2.8406                 1.9244                 1.5828
 Frc consts  --      1.2443                 1.0390                 0.8903
 IR Inten    --      4.2298                 3.4122                 5.7717

                     16                     17                     18
                      A                      A                      A
 Frequencies --    990.6175              1007.8189              1046.7907
 Red. masses --      1.9663                 1.6410                 1.8026
 Frc consts  --      1.1369                 0.9820                 1.1638
 IR Inten    --     17.2065                27.2520                42.3494

                     19                     20                     21
                      A                      A                      A
 Frequencies --   1051.1102              1098.6883              1104.5022
 Red. masses --      1.9416                 1.7405                 1.5415
 Frc consts  --      1.2639                 1.2378                 1.1080
 IR Inten    --      8.9223                 7.3723                17.7300

                     22                     23                     24
                      A                      A                      A
 Frequencies --   1142.1594              1146.6896              1243.1579
 Red. masses --      1.3649                 1.3341                 1.0899
 Frc consts  --      1.0491                 1.0335                 0.9924
 IR Inten    --     12.6239                 2.2775                 5.4269

                     25                     26                     27
                      A                      A                      A
 Frequencies --   1260.4982              1273.2010              1340.9564
 Red. masses --      1.0657                 1.0416                 1.2075
 Frc consts  --      0.9976                 0.9948                 1.2793
 IR Inten    --      4.4604                13.0202                 4.0031

                     28                     29                     30
                      A                      A                      A
 Frequencies --   1365.1997              1385.1395              1435.4316
 Red. masses --      1.1245                 1.2525                 2.2851
 Frc consts  --      1.2349                 1.4159                 2.7741
 IR Inten    --     28.0199                40.4127                45.3123

                     31                     32                     33
                      A                      A                      A
 Frequencies --   1443.8262              1543.8146              1618.2253
 Red. masses --      1.6272                 5.2510                 9.7797
 Frc consts  --      1.9986                 7.3736                15.0888
 IR Inten    --      9.7387                31.1937              2228.6087

                     34                     35                     36
                      A                      A                      A
 Frequencies --   1682.0995              1778.1809              1807.3346
 Red. masses --      7.6416                 9.0185                10.2940
 Frc consts  --     12.7390                16.8011                19.8112
 IR Inten    --     52.4380               167.3451               403.4780

                     37                     38                     39
                      A                      A                      A
 Frequencies --   2950.7243              3043.2349              3071.9251
 Red. masses --      1.0861                 1.0517                 1.0769
 Frc consts  --      5.5717                 5.7390                 5.9877
 IR Inten    --     48.1821                44.6879                52.9885

                     40                     41                     42
                      A                      A                      A
 Frequencies --   3075.4665              3097.3535              3102.7082
 Red. masses --      1.0770                 1.0749                 1.0788
 Frc consts  --      6.0017                 6.0756                 6.1191
 IR Inten    --     73.3929                49.8314               255.6600

                     43                     44                     45
                      A                      A                      A
 Frequencies --   3112.8276              3139.4843              3172.4017
 Red. masses --      1.0828                 1.1076                 1.0547
 Frc consts  --      6.1819                 6.4323                 6.2542
 IR Inten    --    155.5023                51.5120               112.1649

 - Thermochemistry -
 -------------------
 Temperature   298.150 Kelvin.  Pressure   1.00000 Atm.
 Atom     1 has atomic number  6 and mass  12.00000

 Molecular mass:   105.07043 amu.
 Principal axes and moments of inertia in atomic units:
                           1         2         3
     Eigenvalues --   528.37071 869.043631305.05750
           X            0.99994   0.01048   0.00104
           Y           -0.01048   0.99994  -0.00202
           Z           -0.00106   0.00200   1.00000
 This molecule is an asymmetric top.
 Rotational symmetry number  1.
 Warning -- assumption of classical behavior for rotation
           may cause significant error
 Rotational temperatures (Kelvin)      0.16393     0.09967     0.06637
 Rotational constants (GHZ):           3.41567     2.07670     1.38288
 Zero-point vibrational energy     382465.6 (Joules/Mol)
                                   91.41147 (Kcal/Mol)
 Warning -- explicit consideration of   9 degrees of freedom as
           vibrations may cause significant error
 Vibrational temperatures:    130.74   182.79   435.21   505.18   596.10
          (Kelvin)            622.86   663.02   763.76   809.49  1025.46
                             1108.65  1235.58  1240.60  1377.28  1405.84
                             1425.28  1450.03  1506.10  1512.31  1580.77
                             1589.13  1643.31  1649.83  1788.63  1813.58
                             1831.85  1929.34  1964.22  1992.91  2065.27
                             2077.34  2221.20  2328.27  2420.17  2558.41
                             2600.35  4245.43  4378.54  4419.82  4424.91
                             4456.40  4464.11  4478.66  4517.02  4564.38

 Zero-point correction=                           0.145673 (Hartree/Particle)
 Thermal correction to Energy=                    0.152653
 Thermal correction to Enthalpy=                  0.153598
 Thermal correction to Gibbs Free Energy=         0.114434
 Sum of electronic and zero-point Energies=              0.506662
 Sum of electronic and thermal Energies=                 0.513642
 Sum of electronic and thermal Enthalpies=               0.514586
 Sum of electronic and thermal Free Energies=            0.475422

                     E (Thermal)             CV                S
                      KCal/Mol        Cal/Mol-Kelvin    Cal/Mol-Kelvin
 Total                   95.791             26.715             82.428
 Electronic               0.000              0.000              0.000
 Translational            0.889              2.981             39.865
 Rotational               0.889              2.981             27.885
 Vibrational             94.014             20.754             14.677
 Vibration     1          0.602              1.956              3.641
 Vibration     2          0.611              1.926              2.990
 Vibration     3          0.694              1.669              1.403
 Vibration     4          0.728              1.573              1.161
 Vibration     5          0.778              1.439              0.912
 Vibration     6          0.794              1.399              0.849
 Vibration     7          0.819              1.337              0.764
 Vibration     8          0.886              1.182              0.585
 Vibration     9          0.918              1.112              0.519

 Optimization completed.
    -- Stationary point found.
 Normal termination of Gaussian 16 at Thu Jun 12 22:42:12 2025.
