 Gaussian 16, Revision B.01,
 Gaussian 16:  EM64L-G16RevB.01 20-Dec-2017

 ----------------------------------------------
 # opt freq hf/3-21g pop=full geom=connectivity
 ----------------------------------------------

 -------------------
 Title Card Required
 -------------------
 Symbolic Z-matrix:
 Charge =  0 Multiplicity = 1

 SCF Done:  E(RHF) =  -55.8716267766     A.U. after   10 cycles
 SCF Done:  E(RHF) =  -55.8721399165     A.U. after    9 cycles
 SCF Done:  E(RHF) =  -55.8721931168     A.U. after    8 cycles
 SCF Done:  E(RHF) =  -55.8722034301     A.U. after    8 cycles
 Optimization completed.
    -- Stationary point found.
 Normal termination of Gaussian 16 at Fri Jun 13 16:12:24 2025.

 --------------------------------------------------------------
 #N Geom=AllCheck Guess=TCheck SCRF=Check GenChk RHF/3-21G Freq
 --------------------------------------------------------------

 Structure from the checkpoint file:  "nh3_opt.chk"
 -------------------
 Title Card Required
 -------------------
 Charge =  0 Multiplicity = 1

                         Standard orientation:
 ---------------------------------------------------------------------
 Center     Atomic      Atomic             Coordinates (Angstroms)
 Number     Number       Type             X           Y           Z
 ---------------------------------------------------------------------
      1          7           0       -0.000000    0.000000    0.084892
      2          1           0        0.000000    0.961804   -0.198082
      3          1           0       -0.832947   -0.480902   -0.198082
      4          1           0        0.832947   -0.480902   -0.198082
 ---------------------------------------------------------------------

 SCF Done:  E(RHF) =  -55.8722034301     A.U. after    1 cycles

 The electronic state is 1-A1.
 Alpha  occ. eigenvalues --  -15.43154  -1.12014  -0.62032  -0.62032  -0.38901
 Alpha virt. eigenvalues --    0.27526   0.37736   0.37736   1.18638   1.18638
 Alpha virt. eigenvalues --    1.29006   1.41271   1.59869   1.59869   2.57464

 Mulliken charges:
               1
     1  N   -0.876099
     2  H    0.292033
     3  H    0.292033
     4  H    0.292033
 Sum of Mulliken charges =   0.00000

 Dipole moment (field-independent basis, Debye):
    X=             -0.0000    Y=              0.0000    Z=             -1.7543  Tot=              1.7543
 Quadrupole moment (field-independent basis, Debye-Ang):
   XX=             -5.7309   YY=             -5.7309   ZZ=             -8.6915
   XY=             -0.0000   XZ=              0.0000   YZ=              0.0000

  Exact polarizability:   7.936   0.000   7.936   0.000  -0.000   2.410
 Approx polarizability:   5.906   0.000   5.906   0.000  -0.000   1.883

                      1                      2                      3
                     A1                      E                      E
 Frequencies --    856.6572              1858.0656              1858.0656
 Red. masses --      1.1947                 1.0787                 1.0787
 Frc consts  --      0.5166                 2.1941                 2.1941
 IR Inten    --    380.3857                22.6986                22.6986
 Raman Activ --      8.8429                10.4181                10.4181

                      4                      5                      6
                     A1                      E                      E
 Frequencies --   3645.0484              3801.1365              3801.1365
 Red. masses --      1.0163                 1.0938                 1.0938
 Frc consts  --      7.9560                 9.3113                 9.3113
 IR Inten    --      0.2728                 0.9298                 0.9298
 Raman Activ --    108.6812                47.2105                47.2105

 - Thermochemistry -
 -------------------
 Temperature   298.150 Kelvin.  Pressure   1.00000 Atm.
 Atom     1 has atomic number  7 and mass  14.00307

 Molecular mass:    17.02655 amu.
 Principal axes and moments of inertia in atomic units:
                           1         2         3
     Eigenvalues --     5.70503   5.70503   9.98797
           X            0.70907  -0.70514   0.00000
           Y            0.70514   0.70907   0.00000
           Z            0.00000  -0.00000   1.00000
 This molecule is an oblate symmetric top.
 Rotational symmetry number  3.
 Rotational temperatures (Kelvin)     15.18204    15.18204     8.67182
 Rotational constants (GHZ):         316.34235   316.34235   180.69150
 Zero-point vibrational energy      94625.3 (Joules/Mol)
                                   22.61598 (Kcal/Mol)
 Vibrational temperatures:   1232.54  2673.34  2673.34  5244.41  5468.99
          (Kelvin)           5468.99

 Zero-point correction=                           0.036041 (Hartree/Particle)
 Thermal correction to Energy=                    0.038939
 Thermal correction to Enthalpy=                  0.039883
 Thermal correction to Gibbs Free Energy=         0.018037
 Sum of electronic and zero-point Energies=            -55.836163
 Sum of electronic and thermal Energies=               -55.833264
 Sum of electronic and thermal Enthalpies=             -55.832320
 Sum of electronic and thermal Free Energies=          -55.854166

                     E (Thermal)             CV                S
                      KCal/Mol        Cal/Mol-Kelvin    Cal/Mol-Kelvin
 Total                   24.435              6.564             45.978
 Electronic               0.000              0.000              0.000
 Translational            0.889              2.981             34.441
 Rotational               0.889              2.981             11.367
 Vibrational             22.657              0.603              0.171

 Optimization completed.
    -- Stationary point found.
 Normal termination of Gaussian 16 at Fri Jun 13 16:12:25 2025.
