 Gaussian 16, Revision B.01,
 Gaussian 16:  EM64L-G16RevB.01 20-Dec-2017

 -------------------------------------
 # hf/3-21g pop=full geom=connectivity
 -------------------------------------

 -------------------
 Title Card Required
 -------------------
 Symbolic Z-matrix:
 Charge =  0 Multiplicity = 1

                         Standard orientation:
 ---------------------------------------------------------------------
 Center     Atomic      Atomic             Coordinates (Angstroms)
 Number     Number       Type             X           Y           Z
 ---------------------------------------------------------------------
      1          7           0        0.000000    0.000000    0.084892
      2          1           0        0.000000    0.961804   -0.198082
      3          1           0       -0.832947   -0.480902   -0.198082
      4          1           0        0.832947   -0.480902   -0.198082
 ---------------------------------------------------------------------

 SCF Done:  E(RHF) =  -55.8722034301     A.U. after   10 cycles

 The electronic state is 1-A1.
 Alpha  occ. eigenvalues --  -15.43154  -1.12014  -0.62032  -0.62032  -0.38901
 Alpha virt. eigenvalues --    0.27526   0.37736   0.37736   1.18638   1.18638
 Alpha virt. eigenvalues --    1.29006   1.41271   1.59869   1.59869   2.57464

 Mulliken charges:
               1
     1  N   -0.876099
     2  H    0.292033
     3  H    0.292033
     4  H    0.292033
 Sum of Mulliken charges =  -0.00000

 Dipole moment (field-independent basis, Debye):
    X=             -0.0000    Y=             -0.0000    Z=             -1.7543  Tot=              1.7543
 Quadrupole moment (field-independent basis, Debye-Ang):
   XX=             -5.7309   YY=             -5.7309   ZZ=             -8.6915
   XY=             -0.0000   XZ=              0.0000   YZ=             -0.0000

 Normal termination of Gaussian 16 at Fri Jun 13 16:14:49 2025.
