 Gaussian 16, Revision B.01,
 Gaussian 16:  EM64L-G16RevB.01 20-Dec-2017

 -------------------------------------
 # hf/3-21g pop=full geom=connectivity
 -------------------------------------

 -------
 nh4+ sp
 -------
 Symbolic Z-matrix:
 Charge =  1 Multiplicity = 1

                         Standard orientation:
 ---------------------------------------------------------------------
 Center     Atomic      Atomic             Coordinates (Angstroms)
 Number     Number       Type             X           Y           Z
 ---------------------------------------------------------------------
      1          7           0        0.000000    0.000000    0.000000
      2          1           0        0.589681    0.589681    0.589681
      3          1           0       -0.589681   -0.589681    0.589681
      4          1           0       -0.589681    0.589681   -0.589681
      5          1           0        0.589681   -0.589681   -0.589681
 ---------------------------------------------------------------------

 SCF Done:  E(RHF) =  -56.2338557208     A.U. after    8 cycles

 The electronic state is 1-A1.
 Alpha  occ. eigenvalues --  -15.87248  -1.55103  -1.00332  -1.00332  -1.00332
 Alpha virt. eigenvalues --   -0.03282   0.05745   0.05745   0.05745   0.81959
 Alpha virt. eigenvalues --    0.81959   0.81959   1.03223   1.18784   1.18784
 Alpha virt. eigenvalues --    1.18784   2.35812

 Mulliken charges:
               1
     1  N   -0.880392
     2  H    0.470098
     3  H    0.470098
     4  H    0.470098
     5  H    0.470098
 Sum of Mulliken charges =   1.00000

 Dipole moment (field-independent basis, Debye):
    X=              0.0000    Y=              0.0000    Z=             -0.0000  Tot=              0.0000
 Quadrupole moment (field-independent basis, Debye-Ang):
   XX=             -4.4016   YY=             -4.4016   ZZ=             -4.4016
   XY=             -0.0000   XZ=             -0.0000   YZ=              0.0000

 Normal termination of Gaussian 16 at Fri Jun 13 18:48:43 2025.
