 Gaussian 16, Revision B.01,
 Gaussian 16:  EM64L-G16RevB.01 20-Dec-2017

 ----------------------------------------------
 # opt freq hf/3-21g pop=full geom=connectivity
 ----------------------------------------------

 -------------------
 Title Card Required
 -------------------
 Symbolic Z-matrix:
 Charge =  1 Multiplicity = 1

 SCF Done:  E(RHF) =  -56.2338557208     A.U. after    8 cycles
 Optimization completed.
    -- Stationary point found.
 Normal termination of Gaussian 16 at Fri Jun 13 18:57:47 2025.

 --------------------------------------------------------------
 #N Geom=AllCheck Guess=TCheck SCRF=Check GenChk RHF/3-21G Freq
 --------------------------------------------------------------

 Structure from the checkpoint file:  "nh4_ion_opt.chk"
 -------------------
 Title Card Required
 -------------------
 Charge =  1 Multiplicity = 1

                         Standard orientation:
 ---------------------------------------------------------------------
 Center     Atomic      Atomic             Coordinates (Angstroms)
 Number     Number       Type             X           Y           Z
 ---------------------------------------------------------------------
      1          7           0        0.000000    0.000000    0.000000
      2          1           0        0.589681    0.589681    0.589681
      3          1           0       -0.589681   -0.589681    0.589681
      4          1           0       -0.589681    0.589681   -0.589681
      5          1           0        0.589681   -0.589681   -0.589681
 ---------------------------------------------------------------------

 SCF Done:  E(RHF) =  -56.2338557208     A.U. after    1 cycles

 The electronic state is 1-A1.
 Alpha  occ. eigenvalues --  -15.87248  -1.55103  -1.00332  -1.00332  -1.00332
 Alpha virt. eigenvalues --   -0.03282   0.05745   0.05745   0.05745   0.81959
 Alpha virt. eigenvalues --    0.81959   0.81959   1.03223   1.18784   1.18784
 Alpha virt. eigenvalues --    1.18784   2.35812

 Mulliken charges:
               1
     1  N   -0.880392
     2  H    0.470098
     3  H    0.470098
     4  H    0.470098
     5  H    0.470098
 Sum of Mulliken charges =   1.00000

 Dipole moment (field-independent basis, Debye):
    X=              0.0000    Y=              0.0000    Z=              0.0000  Tot=              0.0000
 Quadrupole moment (field-independent basis, Debye-Ang):
   XX=             -4.4016   YY=             -4.4016   ZZ=             -4.4016
   XY=              0.0000   XZ=              0.0000   YZ=              0.0000

  Exact polarizability:   6.162  -0.000   6.162  -0.000   0.000   6.162
 Approx polarizability:   4.783  -0.000   4.783  -0.000  -0.000   4.783

                      1                      2                      3
                     T2                     T2                     T2
 Frequencies --   1705.1301              1705.1301              1705.1301
 Red. masses --      1.1600                 1.1600                 1.1600
 Frc consts  --      1.9872                 1.9872                 1.9872
 IR Inten    --    270.9607               270.9607               270.9607
 Raman Activ --      1.1029                 1.1029                 1.1029

                      4                      5                      6
                      E                      E                     A1
 Frequencies --   1880.3577              1880.3577              3480.4631
 Red. masses --      1.0078                 1.0078                 1.0078
 Frc consts  --      2.0995                 2.0995                 7.1930
 IR Inten    --      0.0000                 0.0000                 0.0000
 Raman Activ --     13.8782                13.8782                64.1018

                      7                      8                      9
                     T2                     T2                     T2
 Frequencies --   3574.2685              3574.2685              3574.2685
 Red. masses --      1.0910                 1.0910                 1.0910
 Frc consts  --      8.2121                 8.2121                 8.2121
 IR Inten    --    250.4433               250.4433               250.4433
 Raman Activ --     26.8161                26.8161                26.8161

 - Thermochemistry -
 -------------------
 Temperature   298.150 Kelvin.  Pressure   1.00000 Atm.
 Atom     1 has atomic number  7 and mass  14.00307

 Molecular mass:    18.03437 amu.
 Principal axes and moments of inertia in atomic units:
                           1         2         3
     Eigenvalues --    10.01168  10.01168  10.01168
           X            1.00000   0.00000  -0.00000
           Y            0.00000   0.00000   1.00000
           Z            0.00000   1.00000   0.00000
 This molecule is a spherical top.
 Rotational symmetry number 12.
 Rotational temperatures (Kelvin)      8.65128     8.65128     8.65128
 Rotational constants (GHZ):         180.26350   180.26350   180.26350
 Zero-point vibrational energy     138045.3 (Joules/Mol)
                                   32.99362 (Kcal/Mol)
 Vibrational temperatures:   2453.30  2453.30  2453.30  2705.42  2705.42
          (Kelvin)           5007.61  5142.58  5142.58  5142.58

 Zero-point correction=                           0.052579 (Hartree/Particle)
 Thermal correction to Energy=                    0.055419
 Thermal correction to Enthalpy=                  0.056364
 Thermal correction to Gibbs Free Energy=         0.035285
 Sum of electronic and zero-point Energies=            -56.181277
 Sum of electronic and thermal Energies=               -56.178436
 Sum of electronic and thermal Enthalpies=             -56.177492
 Sum of electronic and thermal Free Energies=          -56.198571

                     E (Thermal)             CV                S
                      KCal/Mol        Cal/Mol-Kelvin    Cal/Mol-Kelvin
 Total                   34.776              6.107             44.363
 Electronic               0.000              0.000              0.000
 Translational            0.889              2.981             34.612
 Rotational               0.889              2.981              9.732
 Vibrational             32.999              0.145              0.019

 Optimization completed.
    -- Stationary point found.
 Normal termination of Gaussian 16 at Fri Jun 13 18:57:47 2025.
